
 Working directory              : /tmp/asmola/molpro.tucmaMjiTO/
 Global scratch directory       : /tmp/asmola/molpro.tucmaMjiTO/
 Wavefunction directory         : /home/asmola/wfu/
 Main file repository           : /tmp/asmola/molpro.tucmaMjiTO/

 id        : uclcc

 Nodes                        nprocs
 vincent.theory.phys.ucl.ac.uk    1
 GA implementation: MPI file
 GA implementation (serial work in mppx): MPI file

 Using customized tuning parameters: mindgm=1; mindgv=20; mindgc=4; mindgr=1; noblas=0; minvec=7
 default implementation of scratch files=df  


 Variables initialized (1015), CPU time= 0.00 sec
 ***,Methanol Ground State Energy with CCSD(T)-F12 and cc-pVQZ-F12
 memory,500,m;
 gthresh,energy=1.d-10,zero=1.d-14,thrint=1.d-14,oneint=1.d-14,twoint=1.d-14,prefac=1.d-20
 
 geometry={angstrom
 c
 o , 1, rco
 h , 2, roh, 1, acoh
 h1, 1, rch1, 2, aoch1  3  ahh1
 h2, 1, rch2, 2, aoch2, 3, ahh2
 h3, 1, rch3, 2, aoch3, 3, ahh3
 }
 
                                                ! Specify the initial values of the internal coordinates (in Angstroms and degrees)
 
 rco= 1.0
 roh= 0.9
 rch1= 1.0
 rch2= 1.1
 rch3= 1.2
 acoh= 100.0
 aoch1= 112.0
 aoch2= 108.0
 aoch3= 110.0
 ahh1=119.9242125236074
 ahh2=241.13137084989847
 ahh3=358.94441662649416
 
                                                                                 ! Use the cc-pVQZ-F12 basis set
 basis=cc-pVQZ-F12
 
 hf
 
                                                                                 ! Use explicitly correlated F12 methods
                                                                            ! First, MP2-F12 (useful for initial electronic energy)
 {mp2-f12}
 
                                                                        ! If desired, perform CCSD(T)-F12 for more accurate results
 {ccsd(t)-f12}
 
                                                                                 ! Output the energy
 xxx = "mmm"
 point = 2
 text ### CH3OH
 table,xxx,rco,roh,rch1,rch2,rch3,acoh,aoch1,aoch2,aoch3,ahh1,ahh2,ahh3,energy,point
 DIGITS, 0, 8, 8, 8, 8, 8, 8, 8, 8, 8,  8,  8,  8, 8, 4
 save,CH3OH_MEP_MP2_2.dat,new
 
 Commands initialized (818), CPU time= 0.01 sec, 672 directives.
 Default parameters read. Elapsed time= 0.05 sec

 Checking input...
 Passed
1


                                         ***  PROGRAM SYSTEM MOLPRO  ***
                                       Copyright, TTI GmbH Stuttgart, 2015
                                    Version 2022.1 linked Mar  3 2022 23:20:00


 **********************************************************************************************************************************
 LABEL *   Methanol Ground State Energy with CCSD(T)-F12 and cc-pVQZ-F12                 
  (8 PROC) 64 bit serial version                                                         DATE: 16-Oct-24          TIME: 13:11:11  
 **********************************************************************************************************************************

 SHA1:             31073afc4d8441e10870424e0d77336a33bc4286
 **********************************************************************************************************************************

 Memory per process:       500 MW
 Total memory per node:    500 MW

 GA preallocation disabled
 GA check disabled

 Variable memory set to 500.0 MW


 THRESHOLDS:

 ZERO    =  1.00D-14  ONEINT  =  1.00D-14  TWOINT  =  1.00D-14  PREFAC  =  1.00D-20  XXXXXX  =  1.00D-09  EORDER  =  1.00D-04
 ENERGY  =  1.00D-10  ETEST   =  0.00D+00  EDENS   =  0.00D+00  THRDEDEF=  1.00D-06  GRADIENT=  1.00D-05  STEP    =  1.00D-03
 ORBITAL =  1.00D-05  CIVEC   =  1.00D-05  COEFF   =  1.00D-04  PRINTCI =  5.00D-02  PUNCHCI =  9.90D+01  OPTGRAD =  3.00D-04
 OPTENERG=  1.00D-06  OPTSTEP =  3.00D-04  THRGRAD =  1.00D-10  COMPRESS=  1.00D-11  VARMIN  =  1.00D-07  VARMAX  =  1.00D-03
 THRDOUB =  0.00D+00  THRDIV  =  1.00D-05  THRRED  =  1.00D-07  THRPSP  =  1.00D+00  THRDC   =  1.00D-10  THRCS   =  1.00D-10
 THRNRM  =  1.00D-08  THREQ   =  0.00D+00  THRDE   =  1.00D+00  THRREF  =  1.00D-05  SPARFAC =  1.00D+00  THRDLP  =  1.00D-07
 THRDIA  =  1.00D-10  THRDLS  =  1.00D-07  THRGPS  =  0.00D+00  THRKEX  =  0.00D+00  THRDIS  =  2.00D-01  THRVAR  =  1.00D-10
 THRLOC  =  1.00D-06  THRGAP  =  1.00D-06  THRLOCT = -1.00D+00  THRGAPT = -1.00D+00  THRORB  =  1.00D-06  THRMLTP =  0.00D+00
 THRCPQCI=  1.00D-10  KEXTA   =  0.00D+00  THRCOARS=  0.00D+00  SYMTOL  =  1.00D-06  GRADTOL =  1.00D-06  THROVL  =  1.00D-08
 THRORTH =  1.00D-08  THRDLOVL= -1.00D+00  GRID    =  1.00D-06  GRIDMAX =  1.00D-03  DTMAX   =  0.00D+00  THROCCDE=  1.00D-01
 THROCCDE=  1.00D-01  THRPRINT=  2.50D-01

 SETTING RCO            =         1.00000000                                  
 SETTING ROH            =         0.90000000                                  
 SETTING RCH1           =         1.00000000                                  
 SETTING RCH2           =         1.10000000                                  
 SETTING RCH3           =         1.20000000                                  
 SETTING ACOH           =       100.00000000                                  
 SETTING AOCH1          =       112.00000000                                  
 SETTING AOCH2          =       108.00000000                                  
 SETTING AOCH3          =       110.00000000                                  
 SETTING AHH1           =       119.92421252                                  
 SETTING AHH2           =       241.13137085                                  
 SETTING AHH3           =       358.94441663                                  
 SETTING BASIS          =    CC-PVQZ-F12


 Recomputing integrals since basis changed


 Using spherical harmonics

 Library entry C      S cc-pVQZ-F12          selected for orbital group  1
 Library entry C      P cc-pVQZ-F12          selected for orbital group  1
 Library entry C      D cc-pVQZ-F12          selected for orbital group  1
 Library entry C      F cc-pVQZ-F12          selected for orbital group  1
 Library entry C      G cc-pVQZ-F12          selected for orbital group  1
 Library entry O      S cc-pVQZ-F12          selected for orbital group  2
 Library entry O      P cc-pVQZ-F12          selected for orbital group  2
 Library entry O      D cc-pVQZ-F12          selected for orbital group  2
 Library entry O      F cc-pVQZ-F12          selected for orbital group  2
 Library entry O      G cc-pVQZ-F12          selected for orbital group  2
 Library entry H      S cc-pVQZ-F12          selected for orbital group  3
 Library entry H      P cc-pVQZ-F12          selected for orbital group  3
 Library entry H      D cc-pVQZ-F12          selected for orbital group  3
 Library entry H      F cc-pVQZ-F12          selected for orbital group  3


 PROGRAM * SEWARD (Integral evaluation for generally contracted gaussian basis sets)     Author: Roland Lindh, 1990

 Geometry written to block  1 of record 700

 Orientation using atomic masses  
 Molecule type: Asymmetric top
 Rotational constants:      41.1850054     44.8549307    126.7799467 GHz  (calculated with average atomic masses)

 Point group  C1  



 ATOMIC COORDINATES

 NR  ATOM    CHARGE       X              Y              Z

   1  C       6.00    0.018985800   -0.010476212   -0.947275107
   2  O       8.00    0.005330757   -0.112294385    0.939656642
   3  H       1.00   -0.111155918    1.540417108    1.323763509
   4  H1      1.00    1.598733868   -0.740166645   -1.684169088
   5  H2      1.00   -1.638402762   -1.044123088   -1.658348753
   6  H3      1.00   -0.160034329    2.151201003   -1.608665127

 Bond lengths in Bohr (Angstrom)

 1-2  1.889726125  1-3  2.753147899  1-4  1.889726125  1-5  2.078698737  1-6  2.267671350
     ( 1.000000000)     ( 1.456903126)     ( 1.000000000)     ( 1.100000000)     ( 1.200000000)

 2-3  1.700753512
     ( 0.900000000)

 Bond angles

  1-2-3  100.00000000   1-3-2   42.52871831   2-1-3   37.47128169   2-1-4  112.00000000

  2-1-5  108.00000000   2-1-6  110.00000000   3-1-4  125.35886156   3-1-5  121.64118856

  3-1-6   72.53454570   4-1-5  109.94590811   4-1-6  108.68407607   5-1-6  108.13759582

 NUCLEAR CHARGE:                   18
 NUMBER OF PRIMITIVE AOS:         420
 NUMBER OF SYMMETRY AOS:          350
 NUMBER OF CONTRACTIONS:          310   (  310A   )
 NUMBER OF INNER CORE ORBITALS:     0   (    0A   )
 NUMBER OF OUTER CORE ORBITALS:     2   (    2A   )
 NUMBER OF VALENCE ORBITALS:       12   (   12A   )


 NUCLEAR REPULSION ENERGY   50.07730409

 Eigenvalues of metric

         1 0.743E-05 0.984E-05 0.177E-04 0.227E-04 0.309E-04 0.366E-04 0.478E-04 0.625E-04


 Contracted 2-electron integrals neglected if value below      1.0D-14
 AO integral compression algorithm  1   Integral accuracy      1.0D-14

     9435.087 MB (compressed) written to integral file ( 89.9%)


 NUMBER OF SORTED TWO-ELECTRON INTEGRALS: 1161885115.     BUFFER LENGTH:  32768
 NUMBER OF SEGMENTS:  37  SEGMENT LENGTH:   31998710      RECORD LENGTH: 524288

 Memory used in sort:      32.56 MW

 SORT1 READ  1312570426. AND WROTE  1147614788. INTEGRALS IN   3304 RECORDS. CPU TIME:     9.50 SEC, REAL TIME:    16.44 SEC
 SORT2 READ  1147614788. AND WROTE  1161885115. INTEGRALS IN  35992 RECORDS. CPU TIME:    10.75 SEC, REAL TIME:    28.05 SEC

 FILE SIZES:   FILE 1:  9468.7 MBYTE,  FILE 4: 13858.0 MBYTE,   TOTAL:  23326.7 MBYTE

 OPERATOR DM      FOR CENTER  0  COORDINATES:    0.000000    0.000000    0.000000


 **********************************************************************************************************************************
 DATASETS  * FILE   NREC   LENGTH (MB)   RECORD NAMES
              1      19     8121.37       500      610      700      900      950      970     1000      129      960     1100   
                                          VAR    BASINP    GEOM    SYMINP    ZMAT    AOBASIS   BASIS     P2S    ABASIS      S 
                                         1400     1410     1200     1210     1080     1600     1650     1300     1700   
                                           T        V       H0       H01     AOSYM     SMH    MOLCAS    ERIS     OPER   

 PROGRAMS   *        TOTAL       INT
 CPU TIMES  *       279.01    278.89
 REAL TIME  *        91.27 SEC
 DISK USED  *        21.73 GB
 **********************************************************************************************************************************


 Program * Restricted Hartree-Fock

 Orbital guess generated from atomic densities. Full valence occupancy:   14

 Initial occupancy:   9

 NELEC=   18   SYM=1   MS2= 0   THRE=1.0D-12   THRD=1.0D-06   THRG=1.0D-06  HFMA2=F  DIIS_START=2   DIIS_MAX=10   DIIS_INCORE=F

 Level shifts:    0.00 (CLOSED)    0.00 (OPEN)    0.30 (GAP_MIN)

 ITER           ETOT              DE          GRAD        DDIFF     DIIS  NEXP   TIME(IT)  TIME(TOT)  DIAG
   1     -114.73501777    -114.73501777     0.00D+00     0.31D-01     0     0      86.02    165.85    start
   2     -114.77799587      -0.04297810     0.50D-02     0.39D-02     1     0      80.37    246.22    diag
   3     -114.78925125      -0.01125538     0.26D-02     0.12D-02     2     0      82.17    328.39    diag
   4     -114.78978876      -0.00053751     0.39D-03     0.33D-03     3     0      80.23    408.62    diag
   5     -114.78980645      -0.00001769     0.69D-04     0.67D-04     4     0      80.67    489.29    diag
   6     -114.78980807      -0.00000162     0.15D-04     0.30D-04     5     0      84.19    573.48    diag
   7     -114.78980816      -0.00000009     0.33D-05     0.95D-05     6     0      80.21    653.69    diag
   8     -114.78980816      -0.00000000     0.58D-06     0.17D-05     7     0      79.65    733.34    fixocc
   9     -114.78980816      -0.00000000     0.16D-06     0.30D-06     8     0      80.34    813.68    diag
  10     -114.78980816      -0.00000000     0.50D-07     0.75D-07     9     0      80.31    893.99    diag/orth
  11     -114.78980816      -0.00000000     0.14D-07     0.33D-07     9     0      82.76    976.75    diag
  12     -114.78980816      -0.00000000     0.37D-08     0.12D-07     9     0      79.52   1056.27    diag
  13     -114.78980816       0.00000000     0.91D-09     0.13D-08     0     0      80.53   1136.80    diag

 Final occupancy:   9

 !RHF STATE 1.1 Energy               -114.789808163023
  RHF One-electron energy            -254.672728737313
  RHF Two-electron energy              89.805616484465
  RHF Kinetic energy                  117.178300077620
  RHF Nuclear energy                   50.077304089825
  RHF Virial quotient                  -0.979616602110

 !RHF STATE 1.1 Dipole moment           0.04721653     0.51832165     0.37150185
 Dipole moment /Debye                   0.12001244     1.31744223     0.94426351

 Orbital energies:

           1.1          2.1          3.1          4.1          5.1          6.1          7.1          8.1          9.1         10.1
    -20.553751   -11.254850    -1.637899    -0.952834    -0.811413    -0.782820    -0.725660    -0.426214    -0.385306     0.041549

          11.1
      0.056774


 HOMO      9.1    -0.385306 =     -10.4847eV
 LUMO     10.1     0.041549 =       1.1306eV
 LUMO-HOMO         0.426855 =      11.6153eV

 Orbitals saved in record  2100.2


 **********************************************************************************************************************************
 DATASETS  * FILE   NREC   LENGTH (MB)   RECORD NAMES
              1      19     8121.37       500      610      700      900      950      970     1000      129      960     1100   
                                          VAR    BASINP    GEOM    SYMINP    ZMAT    AOBASIS   BASIS     P2S    ABASIS      S 
                                         1400     1410     1200     1210     1080     1600     1650     1300     1700   
                                           T        V       H0       H01     AOSYM     SMH    MOLCAS    ERIS     OPER   

              2       4        1.93       700     1000      520     2100   
                                         GEOM     BASIS   MCVARS     RHF  

 PROGRAMS   *        TOTAL    HF-SCF       INT
 CPU TIMES  *      1415.86   1136.85    278.89
 REAL TIME  *       240.06 SEC
 DISK USED  *        21.73 GB
 **********************************************************************************************************************************


 PROGRAM * MP2 (Closed-shell)     Authors: C. Hampel, H.-J. Werner, 1991, M. Deegan, P.J. Knowles, 1992

                                   MP2-F12 implementation by H.-J. Werner, 2007

                   Density fitting integral evaluation by F.R. Manby, 2003,2007, G. Knizia, 2010


 Basis set VQZ-F12/JKFIT generated.      Number of basis functions:   588 
 Basis set CC-PVQZ-F12/OPTRI generated.  Number of basis functions:   372 
 Basis set CC-PVQZ-F12/MP2FIT generated. Number of basis functions:   656 

 Convergence thresholds:  THRVAR = 1.00D-08  THRDEN = 1.00D-10

 Number of core orbitals:           2 (   2 )
 Number of closed-shell orbitals:   7 (   7 )
 Number of external orbitals:     301 ( 301 )

 Molecular orbitals read from record     2100.2  Type=RHF/CANONICAL  

 MP2-F12 correlation treatment (H.-J. Werner, 2006)
 ==================================================

 Using MP2-F12 with ansatz 3C(FIX)

 Using projected zeroth-order Hamiltonian (+Z)

 FOCKRIB=T FOCKRIC=T FOCKRIP=T CABSP=T CABSA=T CABSK=T CABSF=T GBC=F EBC=F DMAT=T NOFIK=T NOPAO=1 SOLVE=-1  USEPAO=0
 EXCH_A= T EXCH_B= F EXCH_C= F EXCH_P= F

 Geminal basis:    OPTFULL  GEM_TYPE=SLATER  BETA=1.0  NGEM=6

 Optimizing Gaussian exponents for each gem_beta

 Geminal optimization for beta= 1.0000
 Weight function:   m=0, omega= 1.4646

 Augmented Hessian optimization of geminal fit. Trust ratio= 0.40000
 Convergence reached after   2 iterations. Final gradient= 8.66D-16, Step= 4.23D-06, Delta= 1.28D-09

 Alpha:                 0.19532     0.81920     2.85917     9.50073    35.69989   197.79328
 Coeff:                 0.27070     0.30552     0.18297     0.10986     0.06810     0.04224


 All pairs explicitly correlated. Number of r12-pairs:           28

 Excluding core orbitals from MO domains

 AO(A)-basis ORBITAL           loaded. Number of functions:     310
 RI(R)-basis CC-PVQZ-F12/OPTRI loaded. Number of functions:     372
 DF-basis VQZ-F12/JKFIT        loaded. Number of functions:     588

 Screening thresholds:   THRAO=  1.00D-10  THRMO=  1.00D-09  THRPROD=  1.00D-09
                         THRSW=  1.00D-05  THROV=  1.00D-12  THRAOF12= 1.00D-08

 CPU time for Fock operators                      6.45 sec

 Construction of ABS:
 Smallest eigenvalue of S          9.26E-05  (threshold= 1.00E-08)
 Ratio eigmin/eigmax               1.36E-05  (threshold= 1.00E-09)
 Smallest eigenvalue of S kept     9.26E-05  (threshold= 9.26E-05, 0 functions deleted, 372 kept)

 Construction of CABS:
 Smallest eigenvalue of S          1.44E-08  (threshold= 1.00E-08)
 Ratio eigmin/eigmax               1.44E-08  (threshold= 1.00E-09)
 Smallest eigenvalue of S kept     1.44E-08  (threshold= 1.44E-08, 0 functions deleted, 372 kept)

 CPU time for CABS singles                        0.26 sec

 CABS-singles contribution of  -0.00030531 patched into reference energy.
 New reference energy        -114.79011347

 AO(A)-basis ORBITAL           loaded. Number of functions:     310
 RI(R)-basis CC-PVQZ-F12/OPTRI loaded. Number of functions:     372
 DF-basis CC-PVQZ-F12/MP2FIT   loaded. Number of functions:     656

 Screening thresholds:   THRAO=  1.00D-10  THRMO=  1.00D-09  THRPROD=  1.00D-09
                         THRSW=  1.00D-05  THROV=  1.00D-12  THRAOF12= 1.00D-08

 CPU time for 3-index integral evaluation        24.65 sec
 CPU time for first  half transformation          4.34 sec ( 2399.6 MFLOP/sec)
 CPU time for second half transformation          0.01 sec (17936.4 MFLOP/sec)
 CPU time for sorting                             0.04 sec
 CPU time for fitting                             0.26 sec (16428.9 MFLOP/sec)
 CPU time for tilde quantities                    0.36 sec (16902.6 MFLOP/sec)
 CPU time for assembly                            2.18 sec (19676.3 MFLOP/sec)
 CPU time for tranop_f12                          4.17 sec (11574.9 MFLOP/sec)
 CPU time for f12 integrals (total)              39.19 sec, Elapsed time:     11.63 sec
 CPU time for f12 matrices (total)                1.34 sec, Elapsed time:      0.18 sec

 Diagonal F12 approximation with fixed coefficients:  TSING= 0.500,  TTRIP= 0.250 (scaled by -1/beta)

 DF-MP2-F12 energy corrections:
 ==============================
 Approx.                                    Singlet             Triplet             Total
 DF-MP2-F12/3*C(DX,FIX)                -0.021210545202     -0.001683347713     -0.022893892914
 DF-MP2-F12/3*C(FIX)                   -0.020159522964     -0.001518780241     -0.021678303205
 DF-MP2-F12/3C(FIX)                    -0.019997071844     -0.001535763517     -0.021532835361

 DF-MP2-F12 correlation energies:
 ================================
 Approx.                                    Singlet             Triplet             Ecorr            Total Energy
 DF-MP2                                -0.300929204917     -0.155971414812     -0.456900619730   -115.247014094220
 DF-MP2-F12/3*C(DX,FIX)                -0.322139750119     -0.157654762525     -0.479794512644   -115.269907987134
 DF-MP2-F12/3*C(FIX)                   -0.321088727881     -0.157490195054     -0.478578922935   -115.268692397425
 DF-MP2-F12/3C(FIX)                    -0.320926276761     -0.157507178330     -0.478433455091   -115.268546929581

 SCS-DF-MP2 energies (F_SING= 1.20000  F_TRIP= 0.62222  F_PARALLEL= 0.33333):
 ============================================================================
 SCS-DF-MP2                            -0.458163926228   -115.248277400719
 SCS-DF-MP2-F12/3*C(DX,FIX)            -0.484663996825   -115.274777471315
 SCS-DF-MP2-F12/3*C(FIX)               -0.483300372602   -115.273413847092
 SCS-DF-MP2-F12/3C(FIX)                -0.483115998630   -115.273229473120
 Symmetry transformation completed.

 Number of N-1 electron functions:               7
 Number of N-2 electron functions:              28
 Number of singly external CSFs:              2107
 Number of doubly external CSFs:           2220778
 Total number of CSFs:                     2222886

 Length of J-op  integral file:             233.54 MB
 Length of K-op  integral file:             339.68 MB

 Integral transformation finished. Total CPU:  87.77 sec, npass=  1  Memory used:   6.60 MW

 ITER.      SQ.NORM     CORR.ENERGY   TOTAL ENERGY   ENERGY CHANGE     VAR   MIC
   1      1.00000000    -0.45696734  -115.24708082    -0.45696734  0.00D+00   0
   2      1.10226509    -0.45696734  -115.24708082    -0.00000000  0.22D-09   0
   3      1.10226509    -0.45696734  -115.24708082    -0.00000000  0.89D-18   0

 Solving MP2-F12 equations

   1      1.10222924    -0.47827622  -115.26838970    -0.02130888 -0.23D-04   0
   2      1.10222924    -0.47849856  -115.26861204    -0.00022234  0.25D-13   0
   3      1.10222924    -0.47849856  -115.26861204     0.00000000  0.39D-19   0

 CPU TIME FOR ITERATIVE MP2:    2.40 SEC


 MP2-F12 energy corrections:
 ===========================
 Approx.                                    Singlet             Triplet             Total
 MP2-F12/3*C(DX,FIX)                   -0.021210545202     -0.001683347713     -0.022893892914
 MP2-F12/3*C(FIX)                      -0.020159522964     -0.001518780241     -0.021678303205
 MP2-F12/3C(FIX)                       -0.019995090645     -0.001536132713     -0.021531223357

 MP2-F12 correlation energies:
 =============================
 Approx.                                    Singlet             Triplet             Ecorr            Total Energy
 MP2                                   -0.301030607015     -0.155936734603     -0.456967341618   -115.247080816108
 MP2-F12/3*C(DX,FIX)                   -0.322241152217     -0.157620082315     -0.479861234532   -115.269974709022
 MP2-F12/3*C(FIX)                      -0.321190129979     -0.157455514844     -0.478645644823   -115.268759119313
 MP2-F12/3C(FIX)                       -0.321025697660     -0.157472867316     -0.478498564975   -115.268612039465

 SCS-MP2 energies (F_SING= 1.20000  F_TRIP= 0.62222  F_PARALLEL= 0.33333):
 =========================================================================
 SCS-MP2                               -0.458264029949   -115.248377504439
 SCS-MP2-F12/3*C(DX,FIX)               -0.484764100545   -115.274877575036
 SCS-MP2-F12/3*C(FIX)                  -0.483400476322   -115.273513950812
 SCS-MP2-F12/3C(FIX)                   -0.483213954632   -115.273327429122


  Reference energy                   -114.789808163023
  F12 singles correction               -0.000305311467

 F12 singles corrections added to reference energy

  New reference energy               -114.790113474490

  F12/3C(F) singlet correction         -0.019995090645
  F12/3C(F) triplet correction         -0.001536132713
  F12/3C(F) total correction           -0.021531223357
  MP2-F12/3C(F) singlet pair energy    -0.321025697660
  MP2-F12/3C(F) triplet pair energy    -0.157472867316
  MP2-F12/3C(F) correlation energy     -0.478498564975

 !MP2-F12/3C(F) total energy         -115.268612039465


 **********************************************************************************************************************************
 DATASETS  * FILE   NREC   LENGTH (MB)   RECORD NAMES
              1      20     8153.67       500      610      700      900      950      970     1000      129      960     1100   
                                          VAR    BASINP    GEOM    SYMINP    ZMAT    AOBASIS   BASIS     P2S    ABASIS      S 
                                         1400     1410     1200     1210     1080     1600     1650     1300     1700     1380   
                                           T        V       H0       H01     AOSYM     SMH    MOLCAS    ERIS     OPER     JKOP   

              2       7        3.05       700     1000      520     2100     7360     7350     7000   
                                         GEOM     BASIS   MCVARS     RHF    F12ABS    EF12   

 PROGRAMS   *        TOTAL   MP2-F12    HF-SCF       INT
 CPU TIMES  *      1554.70    138.84   1136.85    278.89
 REAL TIME  *       266.99 SEC
 DISK USED  *        21.73 GB
 **********************************************************************************************************************************


 PROGRAM * CCSD (Closed-shell coupled cluster)     Authors: C. Hampel, H.-J. Werner, 1991, M. Deegan, P.J. Knowles, 1992

                                  CCSD-F12 implementation by  H.-J. Werner, 2007

                   Density fitting integral evaluation by F.R. Manby, 2003,2007, G. Knizia, 2010



 Convergence thresholds:  THRVAR = 1.00D-08  THRDEN = 1.00D-10

 CCSD(T)     terms to be evaluated (factor= 1.000)


 Number of core orbitals:           2 (   2 )
 Number of closed-shell orbitals:   7 (   7 )
 Number of external orbitals:     301 ( 301 )

 Molecular orbitals read from record     2100.2  Type=RHF/CANONICAL  

 MP2-F12 correlation treatment (H.-J. Werner, 2006)
 ==================================================

 Using MP2-F12 with ansatz 3C(FIX)

 Using projected zeroth-order Hamiltonian (+Z)

 FOCKRIB=T FOCKRIC=T FOCKRIP=T CABSP=T CABSA=T CABSK=T CABSF=T GBC=F EBC=F DMAT=T NOFIK=T NOPAO=1 SOLVE=-1  USEPAO=0
 EXCH_A= T EXCH_B= F EXCH_C= F EXCH_P= F

 Geminal basis:    OPTFULL  GEM_TYPE=SLATER  BETA=1.0  NGEM=6

 Optimizing Gaussian exponents for each gem_beta

 Geminal optimization for beta= 1.0000
 Weight function:   m=0, omega= 1.4646

 Augmented Hessian optimization of geminal fit. Trust ratio= 0.40000
 Convergence reached after   2 iterations. Final gradient= 8.66D-16, Step= 4.23D-06, Delta= 1.28D-09

 Alpha:                 0.19532     0.81920     2.85917     9.50073    35.69989   197.79328
 Coeff:                 0.27070     0.30552     0.18297     0.10986     0.06810     0.04224


 All pairs explicitly correlated. Number of r12-pairs:           28

 Excluding core orbitals from MO domains

 AO(A)-basis ORBITAL           loaded. Number of functions:     310
 RI(R)-basis CC-PVQZ-F12/OPTRI loaded. Number of functions:     372
 DF-basis VQZ-F12/JKFIT        loaded. Number of functions:     588

 Screening thresholds:   THRAO=  1.00D-10  THRMO=  1.00D-09  THRPROD=  1.00D-09
                         THRSW=  1.00D-05  THROV=  1.00D-12  THRAOF12= 1.00D-08

 CPU time for Fock operators                      6.37 sec

 Construction of ABS:
 Smallest eigenvalue of S          9.26E-05  (threshold= 1.00E-08)
 Ratio eigmin/eigmax               1.36E-05  (threshold= 1.00E-09)
 Smallest eigenvalue of S kept     9.26E-05  (threshold= 9.26E-05, 0 functions deleted, 372 kept)

 Construction of CABS:
 Smallest eigenvalue of S          1.44E-08  (threshold= 1.00E-08)
 Ratio eigmin/eigmax               1.44E-08  (threshold= 1.00E-09)
 Smallest eigenvalue of S kept     1.44E-08  (threshold= 1.44E-08, 0 functions deleted, 372 kept)

 CPU time for CABS singles                        0.20 sec

 CABS-singles contribution of  -0.00030531 patched into reference energy.
 New reference energy        -114.79011347

 AO(A)-basis ORBITAL           loaded. Number of functions:     310
 RI(R)-basis CC-PVQZ-F12/OPTRI loaded. Number of functions:     372
 DF-basis CC-PVQZ-F12/MP2FIT   loaded. Number of functions:     656

 Screening thresholds:   THRAO=  1.00D-10  THRMO=  1.00D-09  THRPROD=  1.00D-09
                         THRSW=  1.00D-05  THROV=  1.00D-12  THRAOF12= 1.00D-08

 CPU time for 3-index integral evaluation        24.83 sec
 CPU time for first  half transformation          4.12 sec ( 2527.8 MFLOP/sec)
 CPU time for second half transformation          0.02 sec ( 8968.2 MFLOP/sec)
 CPU time for sorting                             0.05 sec
 CPU time for fitting                             0.22 sec (19416.0 MFLOP/sec)
 CPU time for tilde quantities                    0.28 sec (21732.0 MFLOP/sec)
 CPU time for assembly                            1.52 sec (28220.0 MFLOP/sec)
 CPU time for tranop_f12                          3.32 sec (14538.3 MFLOP/sec)
 CPU time for f12 integrals (total)              36.72 sec, Elapsed time:     11.24 sec
 CPU time for f12 matrices (total)                1.06 sec, Elapsed time:      0.14 sec

 Diagonal F12 approximation with fixed coefficients:  TSING= 0.500,  TTRIP= 0.250 (scaled by -1/beta)

 DF-MP2-F12 energy corrections:
 ==============================
 Approx.                                    Singlet             Triplet             Total
 DF-MP2-F12/3*C(DX,FIX)                -0.021210545202     -0.001683347713     -0.022893892914
 DF-MP2-F12/3*C(FIX)                   -0.020159522964     -0.001518780241     -0.021678303205
 DF-MP2-F12/3C(FIX)                    -0.019997071844     -0.001535763517     -0.021532835361

 DF-MP2-F12 correlation energies:
 ================================
 Approx.                                    Singlet             Triplet             Ecorr            Total Energy
 DF-MP2                                -0.300929204917     -0.155971414812     -0.456900619730   -115.247014094220
 DF-MP2-F12/3*C(DX,FIX)                -0.322139750119     -0.157654762525     -0.479794512644   -115.269907987134
 DF-MP2-F12/3*C(FIX)                   -0.321088727881     -0.157490195054     -0.478578922935   -115.268692397425
 DF-MP2-F12/3C(FIX)                    -0.320926276761     -0.157507178330     -0.478433455091   -115.268546929581

 SCS-DF-MP2 energies (F_SING= 1.20000  F_TRIP= 0.62222  F_PARALLEL= 0.33333):
 ============================================================================
 SCS-DF-MP2                            -0.458163926228   -115.248277400719
 SCS-DF-MP2-F12/3*C(DX,FIX)            -0.484663996825   -115.274777471315
 SCS-DF-MP2-F12/3*C(FIX)               -0.483300372602   -115.273413847092
 SCS-DF-MP2-F12/3C(FIX)                -0.483115998630   -115.273229473120
 Symmetry transformation completed.

 Number of N-1 electron functions:               7
 Number of N-2 electron functions:              28
 Number of singly external CSFs:              2107
 Number of doubly external CSFs:           2220778
 Total number of CSFs:                     2222886

 Length of J-op  integral file:             233.99 MB
 Length of K-op  integral file:             339.68 MB
 Length of 3-ext integral record:             0.00 MB

 Memory could be reduced to 265.82 Mwords without degradation in triples

 Integral transformation finished. Total CPU: 129.31 sec, npass=  1  Memory used: 126.15 MW

 Reference energy:                   -114.79011347

 Adding F12 terms to K(Cij), methodcc=6,  factor= 1.0

 ITER.      SQ.NORM     CORR.ENERGY   TOTAL ENERGY   ENERGY CHANGE        DEN1      VAR(S)    VAR(P)  DIIS     TIME  TIME/IT
   1      1.10662509    -0.46563722  -115.25575069    -0.00866987     0.00059650  0.12D-02  0.15D-02  1  1   299.50    15.79
   2      1.11313729    -0.46652765  -115.25664113    -0.00089044    -0.00809410  0.33D-04  0.19D-03  2  2   419.20    15.61
   3      1.11563216    -0.46663550  -115.25674898    -0.00010785    -0.00171136  0.12D-04  0.11D-04  3  3   537.81    15.51
   4      1.11643469    -0.46663844  -115.25675192    -0.00000294    -0.00041329  0.18D-05  0.10D-05  4  4   659.48    15.55
   5      1.11659808    -0.46663812  -115.25675160     0.00000032    -0.00003816  0.40D-06  0.13D-06  5  5   777.99    15.49
   6      1.11664782    -0.46663593  -115.25674941     0.00000219    -0.00000425  0.85D-07  0.16D-07  6  6   895.79    15.44
   7      1.11666269    -0.46663506  -115.25674853     0.00000087    -0.00000272  0.12D-07  0.27D-08  6  2  1013.64    15.40
   8      1.11666605    -0.46663496  -115.25674843     0.00000010    -0.00000052  0.17D-08  0.44D-09  6  1  1134.66    15.42
   9      1.11666698    -0.46663497  -115.25674845    -0.00000001    -0.00000019  0.33D-09  0.70D-10  6  3  1257.70    15.47
  10      1.11666659    -0.46663503  -115.25674851    -0.00000006     0.00000037  0.47D-10  0.12D-10  6  5  1379.64    15.49
  11      1.11666667    -0.46663504  -115.25674852    -0.00000001     0.00000004  0.68D-11  0.17D-11  6  4  1498.88    15.48
  12      1.11666668    -0.46663504  -115.25674852     0.00000000    -0.00000001  0.14D-11  0.31D-12  6  6  1616.47    15.45
  13      1.11666666    -0.46663504  -115.25674852    -0.00000000    -0.00000001  0.21D-12  0.55D-13  6  1  1742.79    15.51
  14      1.11666665    -0.46663504  -115.25674852    -0.00000000     0.00000000  0.56D-13  0.92D-14  6  2  1870.06    15.57
  15      1.11666665    -0.46663504  -115.25674852    -0.00000000     0.00000000  0.14D-13  0.24D-14  6  3  1992.87    15.59
  16      1.11666665    -0.46663504  -115.25674852    -0.00000000     0.00000000  0.24D-14  0.56D-15  6  5  2115.61    15.60
  17      1.11666665    -0.46663504  -115.25674852     0.00000000    -0.00000000  0.20D-15  0.82D-16  6  6  2233.86    15.58
  18      1.11666665    -0.46663504  -115.25674852     0.00000000    -0.00000000  0.29D-16  0.72D-17  6  4  2352.79    15.57
  19      1.11666665    -0.46663504  -115.25674852     0.00000000    -0.00000000  0.92D-17  0.17D-17  6  1  2473.05    15.56

 Norm of t1 vector:      0.04829737      S-energy:    -0.00000000      T1 diagnostic:  0.00912734
                                                                       D1 diagnostic:  0.02234338
                                                                       D2 diagnostic:  0.14335224 (internal)

 Adding energy correction from Wij-K(Fij), methodcc=6  factor= 1.0

  CCSD correlation energy              -0.466635043439
  MP2-F12 correction (uncoupled)       -0.021479528933
  C*T doubles correction               -0.000172551333
  f12b correction                       0.004180436283


 Total CPU time for triples:    266.41 sec


 RESULTS
 =======

  Reference energy                   -114.789808163023
  F12 singles correction               -0.000305311467

 F12 singles corrections added to reference energy

  New reference energy               -114.790113474490

  F12a singlet correction              -0.020121954479
  F12a triplet correction              -0.001530125787
  F12a total correction                -0.021652080265

 F12a corrections for ansatz F12/3C(FIX) added to CCSD energy

  CCSD-F12a singlet pair energy        -0.342260467880
  CCSD-F12a triplet pair energy        -0.146026655632
  CCSD-F12a correlation energy         -0.488287123705

  Triples (T) contribution             -0.014925430734
  Total correlation energy             -0.503212554438

  CCSD-F12a total energy             -115.278400598195
  CCSD[T]-F12a energy                -115.293751547265
  CCSD-T-F12a energy                 -115.293181836429
 !CCSD(T)-F12a total energy          -115.293326028928

 F12b corrections for ansatz F12/3C(FIX) added to CCSD(T)-F12a energy

  CCSD-F12b singlet pair energy        -0.338280612155
  CCSD-F12b triplet pair energy        -0.145826075075
  CCSD-F12b correlation energy         -0.484106687422

  Triples (T) contribution             -0.014925430734
  Total correlation energy             -0.499032118156

  CCSD-F12b total energy             -115.274220161912
  CCSD[T]-F12b energy                -115.289571110982
  CCSD-T-F12b energy                 -115.289001400146
 !CCSD(T)-F12b total energy          -115.289145592646

 Timing summary (sec):

 STEP                 CPU(USER)    SYS     CPU(TOT)    WALL
 Transformation        129.94      2.47    132.41     17.75
 CCSD iterations      2298.29     28.56   2326.85    295.76
 Triples               266.41      3.34    269.75     63.95
 MP2-F12                45.10      0.82     45.92     14.19
 F12b energy           108.08      1.27    109.35     13.71

 Program statistics:

 Available memory in ccsd:               499999646
 Min. memory needed in ccsd:               6945697
 Max. memory used in ccsd:                 8811932
 Max. memory used in cckext:               6111466 (20 integral passes)



 **********************************************************************************************************************************
 DATASETS  * FILE   NREC   LENGTH (MB)   RECORD NAMES
              1      20     8884.30       500      610      700      900      950      970     1000      129      960     1100   
                                          VAR    BASINP    GEOM    SYMINP    ZMAT    AOBASIS   BASIS     P2S    ABASIS      S 
                                         1400     1410     1200     1210     1080     1600     1650     1300     1700     1380   
                                           T        V       H0       H01     AOSYM     SMH    MOLCAS    ERIS     OPER     JKOP   

              2       7        3.05       700     1000      520     2100     7360     7350     7000   
                                         GEOM     BASIS   MCVARS     RHF    F12ABS    EF12   

 PROGRAMS   *        TOTAL   CCSD(T)   MP2-F12    HF-SCF       INT
 CPU TIMES  *      4402.56   2847.86    138.84   1136.85    278.89
 REAL TIME  *       672.48 SEC
 DISK USED  *        21.73 GB
 **********************************************************************************************************************************
 SETTING XXX            =    "MMM"
 SETTING POINT          =         2.00000000                                  

 *** ### CH3OH


 XXX       RCO          ROH          RCH1         RCH2         RCH3           ACOH           AOCH1          AOCH2          AOCH3          AHH1           AHH2           AHH3            ENERGY      POINT
 "MMM"   1.00000000   0.90000000   1.00000000   1.10000000   1.20000000   100.00000000   112.00000000   108.00000000   110.00000000   119.92421252   241.13137085   358.94441663   -115.29332603   2.0000
                                                  

 CCSD(T)-F12/cc-pVQZ-F12 energy=   -115.289145592646

     CCSD(T)-F12         MP2-F12          HF-SCF
   -115.28914559   -115.26861204   -114.78980816
 **********************************************************************************************************************************
 Molpro calculation terminated
