
 Working directory              : /tmp/asmola/molpro.G3Dc2Q9pUR/
 Global scratch directory       : /tmp/asmola/molpro.G3Dc2Q9pUR/
 Wavefunction directory         : /home/asmola/wfu/
 Main file repository           : /tmp/asmola/molpro.G3Dc2Q9pUR/

 id        : uclcc

 Nodes                        nprocs
 vincent.theory.phys.ucl.ac.uk    1
 GA implementation: MPI file
 GA implementation (serial work in mppx): MPI file

 Using customized tuning parameters: mindgm=1; mindgv=20; mindgc=4; mindgr=1; noblas=0; minvec=7
 default implementation of scratch files=df  


 Variables initialized (1015), CPU time= 0.01 sec
 ***,Methanol Ground State Energy with CCSD(T)-F12 and cc-pVTZ-F12
 memory,500,m;
 
 geometry={angstrom
 c
 o , 1, rco
 h , 2, roh, 1, acoh
 h1, 1, rch1, 2, aoch1  3  ahh1
 h2, 1, rch2, 2, aoch2, 3, ahh2
 h3, 1, rch3, 2, aoch3, 3, ahh3
 }
 
                                                ! Specify the initial values of the internal coordinates (in Angstroms and degrees)
 re1= 1.4296
 re2= 0.95887
 re3= 1.092294
 re4= 1.092294
 re5= 1.092294
 ae1= 107.9812
 ae2= 110.6646
 ae3= 110.6646
 ae4= 110.6646
 ahh1=60.00
 ahh2=180.00
 ahh3=300.00
 
 rco= 1.4296
 roh= 0.95887
 rch1= 1.092294
 rch2= 1.092294
 rch3= 1.092294
 acoh= 107.9812
 aoch1= 110.6646
 aoch2= 110.6646
 aoch3= 110.6646
 ahh1=60.00
 ahh2=180.00
 ahh3=300.00
 
                                                                                 ! Use the cc-pVTZ-F12 basis set
 basis=cc-pVTZ-F12
 
 hf
 optg,procedure=runmp2,savexyz=CH3OH_equilibrium.xyz
 runmp2 = {hf;mp2}
 
                                                                                 ! Use explicitly correlated F12 methods
                                                                            ! First, MP2-F12 (useful for initial electronic energy)
 {mp2-f12}
 
                                                                        ! If desired, perform CCSD(T)-F12 for more accurate results
 {ccsd(t)-f12}
 
                                                                                 ! Output the energy
 
 Commands initialized (818), CPU time= 0.00 sec, 672 directives.
 Default parameters read. Elapsed time= 0.05 sec

 Checking input...
 Passed
1


                                         ***  PROGRAM SYSTEM MOLPRO  ***
                                       Copyright, TTI GmbH Stuttgart, 2015
                                    Version 2022.1 linked Mar  3 2022 23:20:00


 **********************************************************************************************************************************
 LABEL *   Methanol Ground State Energy with CCSD(T)-F12 and cc-pVTZ-F12                 
  (8 PROC) 64 bit serial version                                                         DATE: 27-Sep-24          TIME: 14:25:18  
 **********************************************************************************************************************************

 SHA1:             31073afc4d8441e10870424e0d77336a33bc4286
 **********************************************************************************************************************************

 Memory per process:       500 MW
 Total memory per node:    500 MW

 GA preallocation disabled
 GA check disabled

 Variable memory set to 500.0 MW

 SETTING RE1            =         1.42960000                                  
 SETTING RE2            =         0.95887000                                  
 SETTING RE3            =         1.09229400                                  
 SETTING RE4            =         1.09229400                                  
 SETTING RE5            =         1.09229400                                  
 SETTING AE1            =       107.98120000                                  
 SETTING AE2            =       110.66460000                                  
 SETTING AE3            =       110.66460000                                  
 SETTING AE4            =       110.66460000                                  
 SETTING AHH1           =        60.00000000                                  
 SETTING AHH2           =       180.00000000                                  
 SETTING AHH3           =       300.00000000                                  
 SETTING RCO            =         1.42960000                                  
 SETTING ROH            =         0.95887000                                  
 SETTING RCH1           =         1.09229400                                  
 SETTING RCH2           =         1.09229400                                  
 SETTING RCH3           =         1.09229400                                  
 SETTING ACOH           =       107.98120000                                  
 SETTING AOCH1          =       110.66460000                                  
 SETTING AOCH2          =       110.66460000                                  
 SETTING AOCH3          =       110.66460000                                  
 SETTING AHH1           =        60.00000000                                  
 SETTING AHH2           =       180.00000000                                  
 SETTING AHH3           =       300.00000000                                  
 SETTING BASIS          =    CC-PVTZ-F12


 Recomputing integrals since basis changed


 Using spherical harmonics

 Library entry C      S cc-pVTZ-F12          selected for orbital group  1
 Library entry C      P cc-pVTZ-F12          selected for orbital group  1
 Library entry C      D cc-pVTZ-F12          selected for orbital group  1
 Library entry C      F cc-pVTZ-F12          selected for orbital group  1
 Library entry O      S cc-pVTZ-F12          selected for orbital group  2
 Library entry O      P cc-pVTZ-F12          selected for orbital group  2
 Library entry O      D cc-pVTZ-F12          selected for orbital group  2
 Library entry O      F cc-pVTZ-F12          selected for orbital group  2
 Library entry H      S cc-pVTZ-F12          selected for orbital group  3
 Library entry H      P cc-pVTZ-F12          selected for orbital group  3
 Library entry H      D cc-pVTZ-F12          selected for orbital group  3


 PROGRAM * SEWARD (Integral evaluation for generally contracted gaussian basis sets)     Author: Roland Lindh, 1990

 Geometry written to block  1 of record 700

 Orientation using atomic masses  
 Molecule type: Asymmetric top
 Symmetry elements: X
 Rotational constants:      23.6333757     24.5065391    128.9114827 GHz  (calculated with average atomic masses)

 Point group  Cs  



 ATOMIC COORDINATES

 NR  ATOM    CHARGE       X              Y              Z

   1  C       6.00    0.000000000    0.021622205   -1.383678043
   2  O       8.00    0.000000000   -0.126383340    1.313817109
   3  H       1.00    0.000000000    1.563882378    1.966773405
   4  H1      1.00    1.672584827    1.025746373   -2.058106820
   5  H3      1.00   -1.672584827    1.025746373   -2.058106820
   6  H2      1.00    0.000000000   -1.866904676   -2.216820134

 Bond lengths in Bohr (Angstrom)

 1-2  2.701552468  1-4  2.064136508  1-5  2.064136508  1-6  2.064136508  2-3  1.812001689
     ( 1.429600000)     ( 1.092294000)     ( 1.092294000)     ( 1.092294000)     ( 0.958870000)

 Bond angles

  1-2-3  107.98120000   2-1-4  110.66460000   2-1-5  110.66460000   2-1-6  110.66460000

  4-1-5  108.25192757   4-1-6  108.25192757   5-1-6  108.25192757

 NUCLEAR CHARGE:                   18
 NUMBER OF PRIMITIVE AOS:         228
 NUMBER OF SYMMETRY AOS:          206
 NUMBER OF CONTRACTIONS:          178   (  114A'  +   64A"  )
 NUMBER OF INNER CORE ORBITALS:     0   (    0A'  +    0A"  )
 NUMBER OF OUTER CORE ORBITALS:     2   (    2A'  +    0A"  )
 NUMBER OF VALENCE ORBITALS:       12   (    9A'  +    3A"  )


 NUCLEAR REPULSION ENERGY   40.16373301

 Eigenvalues of metric

         1 0.891E-04 0.188E-03 0.310E-03 0.462E-03 0.495E-03 0.562E-03 0.621E-03 0.624E-03
         2 0.327E-03 0.571E-03 0.687E-03 0.180E-02 0.355E-02 0.488E-02 0.647E-02 0.854E-02


 Contracted 2-electron integrals neglected if value below      1.0D-11
 AO integral compression algorithm  1   Integral accuracy      1.0D-11

     331.350 MB (compressed) written to integral file ( 53.4%)


 NUMBER OF SORTED TWO-ELECTRON INTEGRALS:   64554730.     BUFFER LENGTH:  32768
 NUMBER OF SEGMENTS:   5  SEGMENT LENGTH:   15997996      RECORD LENGTH: 524288

 Memory used in sort:      16.56 MW

 SORT1 READ    77497885. AND WROTE    63543333. INTEGRALS IN    184 RECORDS. CPU TIME:     0.64 SEC, REAL TIME:     0.87 SEC
 SORT2 READ    63543333. AND WROTE    64554730. INTEGRALS IN   1264 RECORDS. CPU TIME:     0.71 SEC, REAL TIME:     0.90 SEC

 FILE SIZES:   FILE 1:   362.2 MBYTE,  FILE 4:   771.8 MBYTE,   TOTAL:   1134.0 MBYTE

 OPERATOR DM      FOR CENTER  0  COORDINATES:    0.000000    0.000000    0.000000


 **********************************************************************************************************************************
 DATASETS  * FILE   NREC   LENGTH (MB)   RECORD NAMES
              1      19      297.18       500      610      700      900      950      970     1000      129      960     1100   
                                          VAR    BASINP    GEOM    SYMINP    ZMAT    AOBASIS   BASIS     P2S    ABASIS      S 
                                         1400     1410     1200     1210     1080     1600     1650     1300     1700   
                                           T        V       H0       H01     AOSYM     SMH    MOLCAS    ERIS     OPER   

 PROGRAMS   *        TOTAL       INT
 CPU TIMES  *        11.90     11.78
 REAL TIME  *         5.21 SEC
 DISK USED  *         1.06 GB
 **********************************************************************************************************************************


 Program * Restricted Hartree-Fock

 Orbital guess generated from atomic densities. Full valence occupancy:   11   3

 Initial occupancy:   7   2

 NELEC=   18   SYM=1   MS2= 0   THRE=1.0D-08   THRD=1.0D-06   THRG=1.0D-06  HFMA2=F  DIIS_START=2   DIIS_MAX=10   DIIS_INCORE=F

 Level shifts:    0.00 (CLOSED)    0.00 (OPEN)    0.30 (GAP_MIN)

 ITER           ETOT              DE          GRAD        DDIFF     DIIS  NEXP   TIME(IT)  TIME(TOT)  DIAG
   1     -115.06149554    -115.06149554     0.00D+00     0.66D-01     0     0       1.15      2.28    start
   2     -115.08979165      -0.02829611     0.67D-02     0.65D-02     1     0       1.35      3.63    diag
   3     -115.09733215      -0.00754050     0.37D-02     0.22D-02     2     0       1.17      4.80    diag
   4     -115.09786395      -0.00053180     0.72D-03     0.59D-03     3     0       1.20      6.00    diag
   5     -115.09789818      -0.00003423     0.14D-03     0.17D-03     4     0       1.16      7.16    diag
   6     -115.09789972      -0.00000154     0.27D-04     0.48D-04     5     0       1.16      8.32    diag
   7     -115.09789979      -0.00000007     0.56D-05     0.12D-04     6     0       1.17      9.49    diag
   8     -115.09789979      -0.00000000     0.14D-05     0.23D-05     7     0       1.16     10.65    fixocc
   9     -115.09789979      -0.00000000     0.44D-06     0.59D-06     8     0       1.17     11.82    diag
  10     -115.09789979      -0.00000000     0.11D-06     0.14D-06     0     0       1.17     12.99    diag/orth

 Final occupancy:   7   2

 !RHF STATE 1.1 Energy               -115.097899790587
  RHF One-electron energy            -236.586741837652
  RHF Two-electron energy              81.325109038345
  RHF Kinetic energy                  114.949373064331
  RHF Nuclear energy                   40.163733008720
  RHF Virial quotient                  -1.001292105579

 !RHF STATE 1.1 Dipole moment           0.00000000     0.59375638    -0.41482786
 Dipole moment /Debye                   0.00000000     1.50917819    -1.05438726

 Orbital energies:

           1.1          2.1          3.1          4.1          5.1          6.1          7.1          8.1          9.1
    -20.556425   -11.272278    -1.354283    -0.926077    -0.688340    -0.595881    -0.504108     0.054451     0.064759

           1.2          2.2          3.2          4.2
     -0.619226    -0.451651     0.074009     0.181533


 HOMO      2.2    -0.451651 =     -12.2901eV
 LUMO      8.1     0.054451 =       1.4817eV
 LUMO-HOMO         0.506102 =      13.7717eV

 Orbitals saved in record  2100.2


 **********************************************************************************************************************************
 DATASETS  * FILE   NREC   LENGTH (MB)   RECORD NAMES
              1      19      297.18       500      610      700      900      950      970     1000      129      960     1100   
                                          VAR    BASINP    GEOM    SYMINP    ZMAT    AOBASIS   BASIS     P2S    ABASIS      S 
                                         1400     1410     1200     1210     1080     1600     1650     1300     1700   
                                           T        V       H0       H01     AOSYM     SMH    MOLCAS    ERIS     OPER   

              2       4        0.70       700     1000      520     2100   
                                         GEOM     BASIS   MCVARS     RHF  

 PROGRAMS   *        TOTAL    HF-SCF       INT
 CPU TIMES  *        24.92     13.02     11.78
 REAL TIME  *         9.26 SEC
 DISK USED  *         1.06 GB
 **********************************************************************************************************************************


 PROGRAM * OPT (Geometry optimization)     Authors: F. Eckert and H.-J. Werner


 BFGS update of hessian

 Geometry optimization using procedure=RUNMP2

 Running procedure: RUNMP2


 Program * Restricted Hartree-Fock

 Molecular orbitals read from record     2100.2  Type=RHF/CANONICAL  

 Initial occupancy:   7   2

 NELEC=   18   SYM=1   MS2= 0   THRE=1.0D-08   THRD=1.0D-06   THRG=1.0D-06  HFMA2=F  DIIS_START=2   DIIS_MAX=10   DIIS_INCORE=F

 Level shifts:    0.00 (CLOSED)    0.00 (OPEN)    0.30 (GAP_MIN)

 ITER           ETOT              DE          GRAD        DDIFF     DIIS  NEXP   TIME(IT)  TIME(TOT)  DIAG
   1     -115.09789979    -115.09789979     0.00D+00     0.67D-01     0     0       1.15      1.16    start
   2     -115.09789979      -0.00000000     0.46D-07     0.55D-07     1     0       1.27      2.43    diag

 Final occupancy:   7   2

 !RHF STATE 1.1 Energy               -115.097899790590
  RHF One-electron energy            -236.586737461765
  RHF Two-electron energy              81.325104662455
  RHF Kinetic energy                  114.949371090557
  RHF Nuclear energy                   40.163733008720
  RHF Virial quotient                  -1.001292122772

 !RHF STATE 1.1 Dipole moment           0.00000000     0.59375591    -0.41482875
 Dipole moment /Debye                   0.00000000     1.50917700    -1.05438951

 Orbital energies:

           1.1          2.1          3.1          4.1          5.1          6.1          7.1          8.1          9.1
    -20.556425   -11.272275    -1.354283    -0.926076    -0.688339    -0.595880    -0.504108     0.054451     0.064759

           1.2          2.2          3.2          4.2
     -0.619226    -0.451651     0.074009     0.181533


 HOMO      2.2    -0.451651 =     -12.2900eV
 LUMO      8.1     0.054451 =       1.4817eV
 LUMO-HOMO         0.506102 =      13.7717eV

 Orbitals saved in record  2101.2


 **********************************************************************************************************************************
 DATASETS  * FILE   NREC   LENGTH (MB)   RECORD NAMES
              1      19      297.18       500      610      700      900      950      970     1000      129      960     1100   
                                          VAR    BASINP    GEOM    SYMINP    ZMAT    AOBASIS   BASIS     P2S    ABASIS      S 
                                         1400     1410     1200     1210     1080     1600     1650     1300     1700   
                                           T        V       H0       H01     AOSYM     SMH    MOLCAS    ERIS     OPER   

              2       6        1.52       700     1000      520     2100      200     2101   
                                         GEOM     BASIS   MCVARS     RHF    OPTIONS    RHF  

 PROGRAMS   *        TOTAL    HF-SCF    HF-SCF       INT
 CPU TIMES  *        27.41      2.46     13.02     11.78
 REAL TIME  *        10.04 SEC
 DISK USED  *         1.06 GB
 **********************************************************************************************************************************


 PROGRAM * MP2 (Closed-shell)     Authors: C. Hampel, H.-J. Werner, 1991, M. Deegan, P.J. Knowles, 1992


 Convergence thresholds:  THRVAR = 1.00D-12  THRDEN = 1.00D-08

 Number of core orbitals:           2 (   2   0 )
 Number of closed-shell orbitals:   7 (   5   2 )
 Number of external orbitals:     169 ( 107  62 )

 Molecular orbitals read from record     2101.2  Type=RHF/CANONICAL  

 Number of N-1 electron functions:               7
 Number of N-2 electron functions:              28
 Number of singly external CSFs:               659
 Number of doubly external CSFs:            355020
 Total number of CSFs:                      355680

 Length of J-op  integral file:               0.00 MB
 Length of K-op  integral file:               1.20 MB

 Integral transformation finished. Total CPU:   2.84 sec, npass=  1  Memory used:   0.67 MW

 Memory needed for MP2:                      0.08 MW

 SCS-MP2 correlation energy:           -0.444473549022   (PS=  1.200000  PT=  0.333333)
 SCS-MP2 total energy:               -115.542373339612


  Reference energy                   -115.097899790590
  MP2 singlet pair energy              -0.291470543019
  MP2 triplet pair energy              -0.152210727962
  MP2 correlation energy               -0.443681270981

 !MP2 total energy                   -115.541581061571

 KEXT needed  1 integral passes. Memory used:   1.90 MW  CPU time:      6.37 sec


 Starting Coupled-perturbed Hartree-Fock, convergence threshold= 1.0D-06

 ITER   MIC  DIIS      VAR         VARC       CPU
   1     0     1    0.38D-01    0.18D-02     1.25
   2     5     2    0.40D-03    0.98D-04     2.33
   3     4     3    0.20D-04    0.27D-05     3.43
   4     3     4    0.11D-05    0.21D-06     4.53
   5     1     5    0.11D-06    0.65D-08     5.61

 CPHF convergence reached in  5 macroiterations and   13 microiterations.   Accuracy: 1.0821D-07

 CPHF solution written to record  4101.2

 Dipole moments (unrelaxed):            0.00000000     0.58124169    -0.40261997
 Orbital relaxation contribution:      -0.00000000    -0.01886480     0.01090321
 !MP2 STATE 1.1 Dipole moment           0.00000000     0.56237689    -0.39171676
 Dipole moment /Debye                   0.00000000     1.42941947    -0.99564470

 CPU-time for density and lagrangian:                  1.22 sec
 CPU-time for coupled-perturbed hartree-fock:          5.62 sec

 MP2 gradient info saved on record         5200.1


 **********************************************************************************************************************************
 DATASETS  * FILE   NREC   LENGTH (MB)   RECORD NAMES
              1      21      306.17       500      610      700      900      950      970     1000      129      960     1100   
                                          VAR    BASINP    GEOM    SYMINP    ZMAT    AOBASIS   BASIS     P2S    ABASIS      S 
                                         1400     1410     1200     1210     1080     1600     1650     1300     1700     1380   
                                           T        V       H0       H01     AOSYM     SMH    MOLCAS    ERIS     OPER     JKOP   
                                         5200   
                                          MP2  

              2       7        2.08       700     1000      520     2100      200     2101     4101   
                                         GEOM     BASIS   MCVARS     RHF    OPTIONS    RHF     CPHF   

 PROGRAMS   *        TOTAL       MP2    HF-SCF       INT
 CPU TIMES  *        44.86     17.44     13.02     11.78
 REAL TIME  *        14.20 SEC
 DISK USED  *         1.06 GB
 **********************************************************************************************************************************
