
 Working directory              : /tmp/asmola/molpro.NhyXjcWTJe/
 Global scratch directory       : /tmp/asmola/molpro.NhyXjcWTJe/
 Wavefunction directory         : /home/asmola/wfu/
 Main file repository           : /tmp/asmola/molpro.NhyXjcWTJe/

 id        : uclcc

 Nodes                        nprocs
 vincent.theory.phys.ucl.ac.uk    1
 GA implementation: MPI file
 GA implementation (serial work in mppx): MPI file

 Using customized tuning parameters: mindgm=1; mindgv=20; mindgc=4; mindgr=1; noblas=0; minvec=7
 default implementation of scratch files=df  


 Variables initialized (1015), CPU time= 0.00 sec
 ***,Methanol Ground State Energy with CCSD(T)-F12 and cc-pVTZ-F12
 memory,500,m;
 
 geometry={angstrom
 c
 o , 1, rco
 h , 2, roh, 1, acoh
 h1, 1, rch1, 2, aoch1  3  ahh1
 h2, 1, rch2, 2, aoch2, 3, ahh2
 h3, 1, rch3, 2, aoch3, 3, ahh3
 }
 
                                                ! Specify the initial values of the internal coordinates (in Angstroms and degrees)
 re1= 1.4296
 re2= 0.95887
 re3= 1.092294
 re4= 1.092294
 re5= 1.092294
 ae1= 107.9812
 ae2= 110.6646
 ae3= 110.6646
 ae4= 110.6646
 ahh1=60.00
 ahh2=180.00
 ahh3=300.00
 
 rco= 1.4296
 roh= 0.95887
 rch1= 1.092294
 rch2= 1.092294
 rch3= 1.092294
 acoh= 107.9812
 aoch1= 110.6646
 aoch2= 110.6646
 aoch3= 110.6646
 ahh1=60.00
 ahh2=180.00
 ahh3=300.00
 
                                                                                 ! Use the cc-pVTZ-F12 basis set
 basis=cc-pVTZ-F12
 
 hf
 optg,procedure=runmp2,savexyz=CH3OH_equilibrium_mp2.xyz
 runmp2 = {hf;mp2}
 
                                                                                 ! Use explicitly correlated F12 methods
                                                                            ! First, MP2-F12 (useful for initial electronic energy)
 {mp2-f12}
 
                                                                        ! If desired, perform CCSD(T)-F12 for more accurate results
 {ccsd(t)-f12}
 
                                                                                 ! Output the energy
 
 Commands initialized (818), CPU time= 0.00 sec, 672 directives.
 Default parameters read. Elapsed time= 0.06 sec

 Checking input...
 Passed
1


                                         ***  PROGRAM SYSTEM MOLPRO  ***
                                       Copyright, TTI GmbH Stuttgart, 2015
                                    Version 2022.1 linked Mar  3 2022 23:20:00


 **********************************************************************************************************************************
 LABEL *   Methanol Ground State Energy with CCSD(T)-F12 and cc-pVTZ-F12                 
  (8 PROC) 64 bit serial version                                                         DATE: 27-Sep-24          TIME: 14:25:47  
 **********************************************************************************************************************************

 SHA1:             31073afc4d8441e10870424e0d77336a33bc4286
 **********************************************************************************************************************************

 Memory per process:       500 MW
 Total memory per node:    500 MW

 GA preallocation disabled
 GA check disabled

 Variable memory set to 500.0 MW

 SETTING RE1            =         1.42960000                                  
 SETTING RE2            =         0.95887000                                  
 SETTING RE3            =         1.09229400                                  
 SETTING RE4            =         1.09229400                                  
 SETTING RE5            =         1.09229400                                  
 SETTING AE1            =       107.98120000                                  
 SETTING AE2            =       110.66460000                                  
 SETTING AE3            =       110.66460000                                  
 SETTING AE4            =       110.66460000                                  
 SETTING AHH1           =        60.00000000                                  
 SETTING AHH2           =       180.00000000                                  
 SETTING AHH3           =       300.00000000                                  
 SETTING RCO            =         1.42960000                                  
 SETTING ROH            =         0.95887000                                  
 SETTING RCH1           =         1.09229400                                  
 SETTING RCH2           =         1.09229400                                  
 SETTING RCH3           =         1.09229400                                  
 SETTING ACOH           =       107.98120000                                  
 SETTING AOCH1          =       110.66460000                                  
 SETTING AOCH2          =       110.66460000                                  
 SETTING AOCH3          =       110.66460000                                  
 SETTING AHH1           =        60.00000000                                  
 SETTING AHH2           =       180.00000000                                  
 SETTING AHH3           =       300.00000000                                  
 SETTING BASIS          =    CC-PVTZ-F12


 Recomputing integrals since basis changed


 Using spherical harmonics

 Library entry C      S cc-pVTZ-F12          selected for orbital group  1
 Library entry C      P cc-pVTZ-F12          selected for orbital group  1
 Library entry C      D cc-pVTZ-F12          selected for orbital group  1
 Library entry C      F cc-pVTZ-F12          selected for orbital group  1
 Library entry O      S cc-pVTZ-F12          selected for orbital group  2
 Library entry O      P cc-pVTZ-F12          selected for orbital group  2
 Library entry O      D cc-pVTZ-F12          selected for orbital group  2
 Library entry O      F cc-pVTZ-F12          selected for orbital group  2
 Library entry H      S cc-pVTZ-F12          selected for orbital group  3
 Library entry H      P cc-pVTZ-F12          selected for orbital group  3
 Library entry H      D cc-pVTZ-F12          selected for orbital group  3


 PROGRAM * SEWARD (Integral evaluation for generally contracted gaussian basis sets)     Author: Roland Lindh, 1990

 Geometry written to block  1 of record 700

 Orientation using atomic masses  
 Molecule type: Asymmetric top
 Symmetry elements: X
 Rotational constants:      23.6333757     24.5065391    128.9114827 GHz  (calculated with average atomic masses)

 Point group  Cs  



 ATOMIC COORDINATES

 NR  ATOM    CHARGE       X              Y              Z

   1  C       6.00    0.000000000    0.021622205   -1.383678043
   2  O       8.00    0.000000000   -0.126383340    1.313817109
   3  H       1.00    0.000000000    1.563882378    1.966773405
   4  H1      1.00    1.672584827    1.025746373   -2.058106820
   5  H3      1.00   -1.672584827    1.025746373   -2.058106820
   6  H2      1.00    0.000000000   -1.866904676   -2.216820134

 Bond lengths in Bohr (Angstrom)

 1-2  2.701552468  1-4  2.064136508  1-5  2.064136508  1-6  2.064136508  2-3  1.812001689
     ( 1.429600000)     ( 1.092294000)     ( 1.092294000)     ( 1.092294000)     ( 0.958870000)

 Bond angles

  1-2-3  107.98120000   2-1-4  110.66460000   2-1-5  110.66460000   2-1-6  110.66460000

  4-1-5  108.25192757   4-1-6  108.25192757   5-1-6  108.25192757

 NUCLEAR CHARGE:                   18
 NUMBER OF PRIMITIVE AOS:         228
 NUMBER OF SYMMETRY AOS:          206
 NUMBER OF CONTRACTIONS:          178   (  114A'  +   64A"  )
 NUMBER OF INNER CORE ORBITALS:     0   (    0A'  +    0A"  )
 NUMBER OF OUTER CORE ORBITALS:     2   (    2A'  +    0A"  )
 NUMBER OF VALENCE ORBITALS:       12   (    9A'  +    3A"  )


 NUCLEAR REPULSION ENERGY   40.16373301

 Eigenvalues of metric

         1 0.891E-04 0.188E-03 0.310E-03 0.462E-03 0.495E-03 0.562E-03 0.621E-03 0.624E-03
         2 0.327E-03 0.571E-03 0.687E-03 0.180E-02 0.355E-02 0.488E-02 0.647E-02 0.854E-02


 Contracted 2-electron integrals neglected if value below      1.0D-11
 AO integral compression algorithm  1   Integral accuracy      1.0D-11

     331.350 MB (compressed) written to integral file ( 53.4%)


 NUMBER OF SORTED TWO-ELECTRON INTEGRALS:   64554730.     BUFFER LENGTH:  32768
 NUMBER OF SEGMENTS:   5  SEGMENT LENGTH:   15997996      RECORD LENGTH: 524288

 Memory used in sort:      16.56 MW

 SORT1 READ    77497885. AND WROTE    63543333. INTEGRALS IN    184 RECORDS. CPU TIME:     0.63 SEC, REAL TIME:     0.88 SEC
 SORT2 READ    63543333. AND WROTE    64554730. INTEGRALS IN   1264 RECORDS. CPU TIME:     0.69 SEC, REAL TIME:     0.89 SEC

 FILE SIZES:   FILE 1:   362.2 MBYTE,  FILE 4:   771.8 MBYTE,   TOTAL:   1134.0 MBYTE

 OPERATOR DM      FOR CENTER  0  COORDINATES:    0.000000    0.000000    0.000000


 **********************************************************************************************************************************
 DATASETS  * FILE   NREC   LENGTH (MB)   RECORD NAMES
              1      19      297.18       500      610      700      900      950      970     1000      129      960     1100   
                                          VAR    BASINP    GEOM    SYMINP    ZMAT    AOBASIS   BASIS     P2S    ABASIS      S 
                                         1400     1410     1200     1210     1080     1600     1650     1300     1700   
                                           T        V       H0       H01     AOSYM     SMH    MOLCAS    ERIS     OPER   

 PROGRAMS   *        TOTAL       INT
 CPU TIMES  *        11.85     11.76
 REAL TIME  *         5.26 SEC
 DISK USED  *         1.06 GB
 **********************************************************************************************************************************


 Program * Restricted Hartree-Fock

 Orbital guess generated from atomic densities. Full valence occupancy:   11   3

 Initial occupancy:   7   2

 NELEC=   18   SYM=1   MS2= 0   THRE=1.0D-08   THRD=1.0D-06   THRG=1.0D-06  HFMA2=F  DIIS_START=2   DIIS_MAX=10   DIIS_INCORE=F

 Level shifts:    0.00 (CLOSED)    0.00 (OPEN)    0.30 (GAP_MIN)

 ITER           ETOT              DE          GRAD        DDIFF     DIIS  NEXP   TIME(IT)  TIME(TOT)  DIAG
   1     -115.06149554    -115.06149554     0.00D+00     0.66D-01     0     0       1.14      2.26    start
   2     -115.08979165      -0.02829611     0.67D-02     0.65D-02     1     0       1.30      3.56    diag
   3     -115.09733215      -0.00754050     0.37D-02     0.22D-02     2     0       1.21      4.77    diag
   4     -115.09786395      -0.00053180     0.72D-03     0.59D-03     3     0       1.33      6.10    diag
   5     -115.09789818      -0.00003423     0.14D-03     0.17D-03     4     0       1.26      7.36    diag
   6     -115.09789972      -0.00000154     0.27D-04     0.48D-04     5     0       1.16      8.52    diag
   7     -115.09789979      -0.00000007     0.56D-05     0.12D-04     6     0       1.29      9.81    diag
   8     -115.09789979      -0.00000000     0.14D-05     0.23D-05     7     0       1.15     10.96    fixocc
   9     -115.09789979      -0.00000000     0.44D-06     0.59D-06     8     0       1.20     12.16    diag
  10     -115.09789979      -0.00000000     0.11D-06     0.14D-06     0     0       1.32     13.48    diag/orth

 Final occupancy:   7   2

 !RHF STATE 1.1 Energy               -115.097899790587
  RHF One-electron energy            -236.586741837652
  RHF Two-electron energy              81.325109038345
  RHF Kinetic energy                  114.949373064331
  RHF Nuclear energy                   40.163733008720
  RHF Virial quotient                  -1.001292105579

 !RHF STATE 1.1 Dipole moment           0.00000000     0.59375638    -0.41482786
 Dipole moment /Debye                   0.00000000     1.50917819    -1.05438726

 Orbital energies:

           1.1          2.1          3.1          4.1          5.1          6.1          7.1          8.1          9.1
    -20.556425   -11.272278    -1.354283    -0.926077    -0.688340    -0.595881    -0.504108     0.054451     0.064759

           1.2          2.2          3.2          4.2
     -0.619226    -0.451651     0.074009     0.181533


 HOMO      2.2    -0.451651 =     -12.2901eV
 LUMO      8.1     0.054451 =       1.4817eV
 LUMO-HOMO         0.506102 =      13.7717eV

 Orbitals saved in record  2100.2


 **********************************************************************************************************************************
 DATASETS  * FILE   NREC   LENGTH (MB)   RECORD NAMES
              1      19      297.18       500      610      700      900      950      970     1000      129      960     1100   
                                          VAR    BASINP    GEOM    SYMINP    ZMAT    AOBASIS   BASIS     P2S    ABASIS      S 
                                         1400     1410     1200     1210     1080     1600     1650     1300     1700   
                                           T        V       H0       H01     AOSYM     SMH    MOLCAS    ERIS     OPER   

              2       4        0.70       700     1000      520     2100   
                                         GEOM     BASIS   MCVARS     RHF  

 PROGRAMS   *        TOTAL    HF-SCF       INT
 CPU TIMES  *        25.37     13.51     11.76
 REAL TIME  *         9.44 SEC
 DISK USED  *         1.06 GB
 **********************************************************************************************************************************


 PROGRAM * OPT (Geometry optimization)     Authors: F. Eckert and H.-J. Werner


 BFGS update of hessian

 Geometry optimization using procedure=RUNMP2

 Running procedure: RUNMP2


 Program * Restricted Hartree-Fock

 Molecular orbitals read from record     2100.2  Type=RHF/CANONICAL  

 Initial occupancy:   7   2

 NELEC=   18   SYM=1   MS2= 0   THRE=1.0D-08   THRD=1.0D-06   THRG=1.0D-06  HFMA2=F  DIIS_START=2   DIIS_MAX=10   DIIS_INCORE=F

 Level shifts:    0.00 (CLOSED)    0.00 (OPEN)    0.30 (GAP_MIN)

 ITER           ETOT              DE          GRAD        DDIFF     DIIS  NEXP   TIME(IT)  TIME(TOT)  DIAG
   1     -115.09789979    -115.09789979     0.00D+00     0.67D-01     0     0       1.16      1.16    start
   2     -115.09789979      -0.00000000     0.46D-07     0.55D-07     1     0       1.23      2.39    diag

 Final occupancy:   7   2

 !RHF STATE 1.1 Energy               -115.097899790590
  RHF One-electron energy            -236.586737461765
  RHF Two-electron energy              81.325104662455
  RHF Kinetic energy                  114.949371090557
  RHF Nuclear energy                   40.163733008720
  RHF Virial quotient                  -1.001292122772

 !RHF STATE 1.1 Dipole moment           0.00000000     0.59375591    -0.41482875
 Dipole moment /Debye                   0.00000000     1.50917700    -1.05438951

 Orbital energies:

           1.1          2.1          3.1          4.1          5.1          6.1          7.1          8.1          9.1
    -20.556425   -11.272275    -1.354283    -0.926076    -0.688339    -0.595880    -0.504108     0.054451     0.064759

           1.2          2.2          3.2          4.2
     -0.619226    -0.451651     0.074009     0.181533


 HOMO      2.2    -0.451651 =     -12.2900eV
 LUMO      8.1     0.054451 =       1.4817eV
 LUMO-HOMO         0.506102 =      13.7717eV

 Orbitals saved in record  2101.2


 **********************************************************************************************************************************
 DATASETS  * FILE   NREC   LENGTH (MB)   RECORD NAMES
              1      19      297.18       500      610      700      900      950      970     1000      129      960     1100   
                                          VAR    BASINP    GEOM    SYMINP    ZMAT    AOBASIS   BASIS     P2S    ABASIS      S 
                                         1400     1410     1200     1210     1080     1600     1650     1300     1700   
                                           T        V       H0       H01     AOSYM     SMH    MOLCAS    ERIS     OPER   

              2       6        1.52       700     1000      520     2100      200     2101   
                                         GEOM     BASIS   MCVARS     RHF    OPTIONS    RHF  

 PROGRAMS   *        TOTAL    HF-SCF    HF-SCF       INT
 CPU TIMES  *        27.80      2.42     13.51     11.76
 REAL TIME  *        10.21 SEC
 DISK USED  *         1.06 GB
 **********************************************************************************************************************************


 PROGRAM * MP2 (Closed-shell)     Authors: C. Hampel, H.-J. Werner, 1991, M. Deegan, P.J. Knowles, 1992


 Convergence thresholds:  THRVAR = 1.00D-12  THRDEN = 1.00D-08

 Number of core orbitals:           2 (   2   0 )
 Number of closed-shell orbitals:   7 (   5   2 )
 Number of external orbitals:     169 ( 107  62 )

 Molecular orbitals read from record     2101.2  Type=RHF/CANONICAL  

 Number of N-1 electron functions:               7
 Number of N-2 electron functions:              28
 Number of singly external CSFs:               659
 Number of doubly external CSFs:            355020
 Total number of CSFs:                      355680

 Length of J-op  integral file:               0.00 MB
 Length of K-op  integral file:               1.20 MB

 Integral transformation finished. Total CPU:   2.73 sec, npass=  1  Memory used:   0.67 MW

 Memory needed for MP2:                      0.08 MW

 SCS-MP2 correlation energy:           -0.444473549022   (PS=  1.200000  PT=  0.333333)
 SCS-MP2 total energy:               -115.542373339612


  Reference energy                   -115.097899790590
  MP2 singlet pair energy              -0.291470543019
  MP2 triplet pair energy              -0.152210727962
  MP2 correlation energy               -0.443681270981

 !MP2 total energy                   -115.541581061571

 KEXT needed  1 integral passes. Memory used:   1.90 MW  CPU time:      5.35 sec


 Starting Coupled-perturbed Hartree-Fock, convergence threshold= 1.0D-06

 ITER   MIC  DIIS      VAR         VARC       CPU
   1     0     1    0.38D-01    0.18D-02     1.30
   2     5     2    0.40D-03    0.98D-04     2.42
   3     4     3    0.20D-04    0.27D-05     3.51
   4     3     4    0.11D-05    0.21D-06     4.60
   5     1     5    0.11D-06    0.65D-08     5.68

 CPHF convergence reached in  5 macroiterations and   13 microiterations.   Accuracy: 1.0821D-07

 CPHF solution written to record  4101.2

 Dipole moments (unrelaxed):            0.00000000     0.58124169    -0.40261997
 Orbital relaxation contribution:      -0.00000000    -0.01886480     0.01090321
 !MP2 STATE 1.1 Dipole moment           0.00000000     0.56237689    -0.39171676
 Dipole moment /Debye                   0.00000000     1.42941947    -0.99564470

 CPU-time for density and lagrangian:                  1.20 sec
 CPU-time for coupled-perturbed hartree-fock:          5.69 sec

 MP2 gradient info saved on record         5200.1


 **********************************************************************************************************************************
 DATASETS  * FILE   NREC   LENGTH (MB)   RECORD NAMES
              1      21      306.17       500      610      700      900      950      970     1000      129      960     1100   
                                          VAR    BASINP    GEOM    SYMINP    ZMAT    AOBASIS   BASIS     P2S    ABASIS      S 
                                         1400     1410     1200     1210     1080     1600     1650     1300     1700     1380   
                                           T        V       H0       H01     AOSYM     SMH    MOLCAS    ERIS     OPER     JKOP   
                                         5200   
                                          MP2  

              2       7        2.08       700     1000      520     2100      200     2101     4101   
                                         GEOM     BASIS   MCVARS     RHF    OPTIONS    RHF     CPHF   

 PROGRAMS   *        TOTAL       MP2    HF-SCF       INT
 CPU TIMES  *        44.11     16.30     13.51     11.76
 REAL TIME  *        14.19 SEC
 DISK USED  *         1.06 GB
 **********************************************************************************************************************************

 Geometry written to block  1 of record 700

 XYZ inputs for each point on the optimization path will be saved in files ch3oh_equilibrium_mp2_xx.xyz

 *** Long output written to logfile /scratch/vol1/asmola/Methanol/MolPro/RunMolPro/CH3OH_OPTG_MP2.log ***


 Making model hessian for Z-matrix coordinates

 Entering Rational Function Geometry Optimization

 ITER.   ENERGY(OLD)    ENERGY(NEW)      DE          GRADMAX     GRADNORM    GRADRMS     STEPMAX     STEPLEN     STEPRMS   CPU-time
   1  -115.54158106  -115.54209740    -0.00051634  0.01496239  0.01817034  0.00524532  0.03490659  0.06974058  0.00581171    108.28
   2  -115.54209740  -115.54231734    -0.00021993  0.01002705  0.01209331  0.00349104  0.03490659  0.03756171  0.00313014    197.04
   3  -115.54231734  -115.54232660    -0.00000926  0.00172929  0.00209798  0.00060563  0.00715648  0.00755119  0.00062927    285.67
   4  -115.54232660  -115.54232719    -0.00000059  0.00040977  0.00051471  0.00014858  0.00227063  0.00243019  0.00020252    373.12
   5  -115.54232719  -115.54232717     0.00000002  0.00001767  0.00002947  0.00000851  0.00002938  0.00006205  0.00000517    456.30

 END OF GEOMETRY OPTIMIZATION.

 Optimized variables
 RCO=                 1.42077677 ANGSTROM
 ROH=                 0.96013932 ANGSTROM
 ACOH=              108.12930637 DEGREE
 RCH1=                1.09108970 ANGSTROM
 AOCH1=             111.95221297 DEGREE
 AHH1=               61.43364279 DEGREE
 RCH2=                1.08555104 ANGSTROM
 AOCH2=             106.58134561 DEGREE
 AHH2=              180.00000000 DEGREE
 RCH3=                1.09108970 ANGSTROM
 AOCH3=             111.95221297 DEGREE
 AHH3=              298.56635721 DEGREE

 **********************************************************************************************************************************

 Geometry written to block  1 of record 700

 Recomputing wavefunction for reoriented structure

 Current geometry (xyz format, in Angstrom)


 Dump information in style XYZ to ch3oh_equilibrium_mp2.xyz                                                       

    6
 MP2/CC-PVTZ-F12  ENERGY=-115.54232717
 C          0.0000000000        0.0131899514       -0.7284713086
 O          0.0000000000       -0.0640249267        0.6902057114
 H          0.0000000000        0.8308647148        1.0381138198
 H          0.8887866398        0.5185475391       -1.1094552204
 H          0.0000000000       -1.0088452561       -1.0943471085
 H         -0.8887866398        0.5185475391       -1.1094552204

 **********************************************************************************************************************************


 **********************************************************************************************************************************
 DATASETS  * FILE   NREC   LENGTH (MB)   RECORD NAMES
              1      21      306.42       500      610      700      900      950      970     1000      129      960     1100   
                                          VAR    BASINP    GEOM    SYMINP    ZMAT    AOBASIS   BASIS     P2S    ABASIS      S 
                                         1400     1410     1200     1210     1080     1600     1650     1300     1700     1380   
                                           T        V       H0       H01     AOSYM     SMH    MOLCAS    ERIS     OPER     JKOP   
                                         5200   
                                          MP2  

              2       8        2.26       700     1000      520     2100      200     2101     4101     9001   
                                         GEOM     BASIS   MCVARS     RHF    OPTIONS    RHF     CPHF    DEN_MP2    

 PROGRAMS   *        TOTAL      OPTG    HF-SCF       INT
 CPU TIMES  *       486.94    461.57     13.51     11.76
 REAL TIME  *       116.92 SEC
 DISK USED  *         1.06 GB
 **********************************************************************************************************************************


 PROGRAM * MP2 (Closed-shell)     Authors: C. Hampel, H.-J. Werner, 1991, M. Deegan, P.J. Knowles, 1992

                                   MP2-F12 implementation by H.-J. Werner, 2007

                   Density fitting integral evaluation by F.R. Manby, 2003,2007, G. Knizia, 2010


 Basis set VTZ-F12/JKFIT generated.      Number of basis functions:   392 
 Basis set CC-PVTZ-F12/OPTRI generated.  Number of basis functions:   314 
 Basis set CC-PVTZ-F12/MP2FIT generated. Number of basis functions:   396 

 Deleting transformed integrals

 Convergence thresholds:  THRVAR = 1.00D-12  THRDEN = 1.00D-08

 Number of core orbitals:           2 (   2   0 )
 Number of closed-shell orbitals:   7 (   5   2 )
 Number of external orbitals:     169 ( 107  62 )

 Molecular orbitals read from record     2101.2  Type=RHF/CANONICAL (state 1.1)

 MP2-F12 correlation treatment (H.-J. Werner, 2006)
 ==================================================

 Using MP2-F12 with ansatz 3C(FIX)

 Using projected zeroth-order Hamiltonian (+Z)

 FOCKRIB=T FOCKRIC=T FOCKRIP=T CABSP=T CABSA=T CABSK=T CABSF=T GBC=F EBC=F DMAT=T NOFIK=T NOPAO=1 SOLVE=-1  USEPAO=0
 EXCH_A= T EXCH_B= F EXCH_C= F EXCH_P= F

 Geminal basis:    OPTFULL  GEM_TYPE=SLATER  BETA=1.0  NGEM=6

 Optimizing Gaussian exponents for each gem_beta

 Geminal optimization for beta= 1.0000
 Weight function:   m=0, omega= 1.4646

 Augmented Hessian optimization of geminal fit. Trust ratio= 0.40000
 Convergence reached after   2 iterations. Final gradient= 8.66D-16, Step= 4.23D-06, Delta= 1.28D-09

 Alpha:                 0.19532     0.81920     2.85917     9.50073    35.69989   197.79328
 Coeff:                 0.27070     0.30552     0.18297     0.10986     0.06810     0.04224


 Symmetry turned off. Reference energy:       -115.098766015641

 All pairs explicitly correlated. Number of r12-pairs:           28

 Excluding core orbitals from MO domains

 AO(A)-basis ORBITAL           loaded. Number of functions:     178
 RI(R)-basis CC-PVTZ-F12/OPTRI loaded. Number of functions:     314
 DF-basis VTZ-F12/JKFIT        loaded. Number of functions:     392

 Screening thresholds:   THRAO=  1.00D-10  THRMO=  1.00D-10  THRPROD=  1.00D-10
                         THRSW=  1.00D-07  THROV=  1.00D-12  THRAOF12= 1.00D-08

 CPU time for Fock operators                      6.28 sec

 Construction of ABS:
 Smallest eigenvalue of S          4.36E-04  (threshold= 1.00E-08)
 Ratio eigmin/eigmax               5.57E-05  (threshold= 1.00E-09)
 Smallest eigenvalue of S kept     4.36E-04  (threshold= 4.36E-04, 0 functions deleted, 314 kept)

 Construction of CABS:
 Smallest eigenvalue of S          7.27E-07  (threshold= 1.00E-08)
 Ratio eigmin/eigmax               7.27E-07  (threshold= 1.00E-09)
 Smallest eigenvalue of S kept     7.27E-07  (threshold= 7.27E-07, 0 functions deleted, 314 kept)

 CPU time for CABS singles                        0.11 sec

 CABS-singles contribution of  -0.00135332 patched into reference energy.
 New reference energy        -115.10011934

 AO(A)-basis ORBITAL           loaded. Number of functions:     178
 RI(R)-basis CC-PVTZ-F12/OPTRI loaded. Number of functions:     314
 DF-basis CC-PVTZ-F12/MP2FIT   loaded. Number of functions:     396

 Screening thresholds:   THRAO=  1.00D-10  THRMO=  1.00D-10  THRPROD=  1.00D-10
                         THRSW=  1.00D-07  THROV=  1.00D-12  THRAOF12= 1.00D-08

 CPU time for 3-index integral evaluation         4.75 sec
 CPU time for first  half transformation          0.59 sec ( 4184.8 MFLOP/sec)
 CPU time for second half transformation          0.01 sec ( 6217.0 MFLOP/sec)
 CPU time for sorting                             0.02 sec
 CPU time for fitting                             0.11 sec (10358.4 MFLOP/sec)
 CPU time for tilde quantities                    0.17 sec ( 8885.0 MFLOP/sec)
 CPU time for assembly                            0.69 sec (17903.8 MFLOP/sec)
 CPU time for tranop_f12                          1.58 sec (10038.1 MFLOP/sec)
 CPU time for f12 integrals (total)              11.34 sec, Elapsed time:      5.77 sec
 CPU time for f12 matrices (total)                0.44 sec, Elapsed time:      0.07 sec

 Diagonal F12 approximation with fixed coefficients:  TSING= 0.500,  TTRIP= 0.250 (scaled by -1/beta)

 DF-MP2-F12 energy corrections:
 ==============================
 Approx.                                    Singlet             Triplet             Total
 DF-MP2-F12/3*C(DX,FIX)                -0.038286658249     -0.004212618115     -0.042499276364
 DF-MP2-F12/3*C(FIX)                   -0.036087906618     -0.003930902360     -0.040018808978
 DF-MP2-F12/3C(FIX)                    -0.036030485955     -0.004065864933     -0.040096350888

 DF-MP2-F12 correlation energies:
 ================================
 Approx.                                    Singlet             Triplet             Ecorr            Total Energy
 DF-MP2                                -0.291112320777     -0.152382506811     -0.443494827588   -115.543614163933
 DF-MP2-F12/3*C(DX,FIX)                -0.329398979026     -0.156595124925     -0.485994103952   -115.586113440296
 DF-MP2-F12/3*C(FIX)                   -0.327200227396     -0.156313409170     -0.483513636566   -115.583632972911
 DF-MP2-F12/3C(FIX)                    -0.327142806732     -0.156448371744     -0.483591178476   -115.583710514821

 SCS-DF-MP2 energies (F_SING= 1.20000  F_TRIP= 0.62222  F_PARALLEL= 0.33333):
 ============================================================================
 SCS-DF-MP2                            -0.444150566948   -115.544269903293
 SCS-DF-MP2-F12/3*C(DX,FIX)            -0.492715741452   -115.592835077797
 SCS-DF-MP2-F12/3*C(FIX)               -0.489901949692   -115.590021286037
 SCS-DF-MP2-F12/3C(FIX)                -0.489917021608   -115.590036357953

 Symmetry restored.
 Symmetry transformation completed.

 Number of N-1 electron functions:               7
 Number of N-2 electron functions:              28
 Number of singly external CSFs:               659
 Number of doubly external CSFs:            355020
 Total number of CSFs:                      355680

 Length of J-op  integral file:             103.49 MB
 Length of K-op  integral file:             127.95 MB

 Integral transformation finished. Total CPU:   2.72 sec, npass=  1  Memory used:   0.67 MW

 ITER.      SQ.NORM     CORR.ENERGY   TOTAL ENERGY   ENERGY CHANGE     VAR   MIC
   1      1.00000000    -0.44356119  -115.54368052    -0.44356119  0.00D+00   0
   2      1.11475714    -0.44356117  -115.54368051     0.00000001 -0.37D-08   0
   3      1.11475714    -0.44356117  -115.54368051    -0.00000000  0.20D-15   0

 Solving MP2-F12 equations

   1      1.11472079    -0.48289965  -115.58301898    -0.03933847 -0.37D-04   0
   2      1.11472079    -0.48365612  -115.58377546    -0.00075647 -0.15D-11   0
   3      1.11472079    -0.48365612  -115.58377546     0.00000000  0.21D-18   0

 CPU TIME FOR ITERATIVE MP2:    0.32 SEC


 MP2-F12 energy corrections:
 ===========================
 Approx.                                    Singlet             Triplet             Total
 MP2-F12/3*C(DX,FIX)                   -0.038286658249     -0.004212618115     -0.042499276364
 MP2-F12/3*C(FIX)                      -0.036087906618     -0.003930902360     -0.040018808978
 MP2-F12/3C(FIX)                       -0.036027785512     -0.004067161032     -0.040094946544

 MP2-F12 correlation energies:
 =============================
 Approx.                                    Singlet             Triplet             Ecorr            Total Energy
 MP2                                   -0.291295606131     -0.152265567652     -0.443561173783   -115.543680510128
 MP2-F12/3*C(DX,FIX)                   -0.329582264380     -0.156478185767     -0.486060450147   -115.586179786492
 MP2-F12/3*C(FIX)                      -0.327383512750     -0.156196470012     -0.483579982761   -115.583699319106
 MP2-F12/3C(FIX)                       -0.327323391643     -0.156332728684     -0.483656120327   -115.583775456672

 SCS-MP2 energies (F_SING= 1.20000  F_TRIP= 0.62222  F_PARALLEL= 0.33333):
 =========================================================================
 SCS-MP2                               -0.444297747230   -115.544417083574
 SCS-MP2-F12/3*C(DX,FIX)               -0.492862921733   -115.592982258078
 SCS-MP2-F12/3*C(FIX)                  -0.490049129973   -115.590168466318
 SCS-MP2-F12/3C(FIX)                   -0.490061767820   -115.590181104165


  Reference energy                   -115.098766015641
  F12 singles correction               -0.001353320704

 F12 singles corrections added to reference energy

  New reference energy               -115.100119336345

  F12/3C(F) singlet correction         -0.036027785512
  F12/3C(F) triplet correction         -0.004067161032
  F12/3C(F) total correction           -0.040094946544
  MP2-F12/3C(F) singlet pair energy    -0.327323391643
  MP2-F12/3C(F) triplet pair energy    -0.156332728684
  MP2-F12/3C(F) correlation energy     -0.483656120327

 !MP2-F12/3C(F) total energy         -115.583775456672


 **********************************************************************************************************************************
 DATASETS  * FILE   NREC   LENGTH (MB)   RECORD NAMES
              1      20      302.91       500      610      700      900      950      970     1000      129      960     1100   
                                          VAR    BASINP    GEOM    SYMINP    ZMAT    AOBASIS   BASIS     P2S    ABASIS      S 
                                         1400     1410     1200     1210     1080     1600     1650     1300     1700     1380   
                                           T        V       H0       H01     AOSYM     SMH    MOLCAS    ERIS     OPER     JKOP   

              2      11        2.28       700     1000      520     2100      200     2101     4101     9001     7360     7350   
                                         GEOM     BASIS   MCVARS     RHF    OPTIONS    RHF     CPHF    DEN_MP2  F12ABS    EF12   
                                         7000   

 PROGRAMS   *        TOTAL   MP2-F12      OPTG    HF-SCF       INT
 CPU TIMES  *       508.72     21.77    461.57     13.51     11.76
 REAL TIME  *       128.33 SEC
 DISK USED  *         1.06 GB
 **********************************************************************************************************************************


 PROGRAM * CCSD (Closed-shell coupled cluster)     Authors: C. Hampel, H.-J. Werner, 1991, M. Deegan, P.J. Knowles, 1992

                                  CCSD-F12 implementation by  H.-J. Werner, 2007

                   Density fitting integral evaluation by F.R. Manby, 2003,2007, G. Knizia, 2010



 Convergence thresholds:  THRVAR = 1.00D-12  THRDEN = 1.00D-08

 CCSD(T)     terms to be evaluated (factor= 1.000)


 Number of core orbitals:           2 (   2   0 )
 Number of closed-shell orbitals:   7 (   5   2 )
 Number of external orbitals:     169 ( 107  62 )

 Molecular orbitals read from record     2101.2  Type=RHF/CANONICAL (state 1.1)

 MP2-F12 correlation treatment (H.-J. Werner, 2006)
 ==================================================

 Using MP2-F12 with ansatz 3C(FIX)

 Using projected zeroth-order Hamiltonian (+Z)

 FOCKRIB=T FOCKRIC=T FOCKRIP=T CABSP=T CABSA=T CABSK=T CABSF=T GBC=F EBC=F DMAT=T NOFIK=T NOPAO=1 SOLVE=-1  USEPAO=0
 EXCH_A= T EXCH_B= F EXCH_C= F EXCH_P= F

 Geminal basis:    OPTFULL  GEM_TYPE=SLATER  BETA=1.0  NGEM=6

 Optimizing Gaussian exponents for each gem_beta

 Geminal optimization for beta= 1.0000
 Weight function:   m=0, omega= 1.4646

 Augmented Hessian optimization of geminal fit. Trust ratio= 0.40000
 Convergence reached after   2 iterations. Final gradient= 8.66D-16, Step= 4.23D-06, Delta= 1.28D-09

 Alpha:                 0.19532     0.81920     2.85917     9.50073    35.69989   197.79328
 Coeff:                 0.27070     0.30552     0.18297     0.10986     0.06810     0.04224


 Symmetry turned off. Reference energy:       -115.098766015641

 All pairs explicitly correlated. Number of r12-pairs:           28

 Excluding core orbitals from MO domains

 AO(A)-basis ORBITAL           loaded. Number of functions:     178
 RI(R)-basis CC-PVTZ-F12/OPTRI loaded. Number of functions:     314
 DF-basis VTZ-F12/JKFIT        loaded. Number of functions:     392

 Screening thresholds:   THRAO=  1.00D-10  THRMO=  1.00D-10  THRPROD=  1.00D-10
                         THRSW=  1.00D-07  THROV=  1.00D-12  THRAOF12= 1.00D-08

 CPU time for Fock operators                      6.34 sec

 Construction of ABS:
 Smallest eigenvalue of S          4.36E-04  (threshold= 1.00E-08)
 Ratio eigmin/eigmax               5.57E-05  (threshold= 1.00E-09)
 Smallest eigenvalue of S kept     4.36E-04  (threshold= 4.36E-04, 0 functions deleted, 314 kept)

 Construction of CABS:
 Smallest eigenvalue of S          7.27E-07  (threshold= 1.00E-08)
 Ratio eigmin/eigmax               7.27E-07  (threshold= 1.00E-09)
 Smallest eigenvalue of S kept     7.27E-07  (threshold= 7.27E-07, 0 functions deleted, 314 kept)

 CPU time for CABS singles                        0.12 sec

 CABS-singles contribution of  -0.00135332 patched into reference energy.
 New reference energy        -115.10011934

 AO(A)-basis ORBITAL           loaded. Number of functions:     178
 RI(R)-basis CC-PVTZ-F12/OPTRI loaded. Number of functions:     314
 DF-basis CC-PVTZ-F12/MP2FIT   loaded. Number of functions:     396

 Screening thresholds:   THRAO=  1.00D-10  THRMO=  1.00D-10  THRPROD=  1.00D-10
                         THRSW=  1.00D-07  THROV=  1.00D-12  THRAOF12= 1.00D-08

 CPU time for 3-index integral evaluation         4.76 sec
 CPU time for first  half transformation          0.57 sec ( 4331.7 MFLOP/sec)
 CPU time for second half transformation          0.02 sec ( 3108.5 MFLOP/sec)
 CPU time for sorting                             0.01 sec
 CPU time for fitting                             0.11 sec (10358.4 MFLOP/sec)
 CPU time for tilde quantities                    0.13 sec (11618.9 MFLOP/sec)
 CPU time for assembly                            0.57 sec (21673.0 MFLOP/sec)
 CPU time for tranop_f12                          1.38 sec (11492.9 MFLOP/sec)
 CPU time for f12 integrals (total)              10.72 sec, Elapsed time:      5.69 sec
 CPU time for f12 matrices (total)                0.49 sec, Elapsed time:      0.07 sec

 Diagonal F12 approximation with fixed coefficients:  TSING= 0.500,  TTRIP= 0.250 (scaled by -1/beta)

 DF-MP2-F12 energy corrections:
 ==============================
 Approx.                                    Singlet             Triplet             Total
 DF-MP2-F12/3*C(DX,FIX)                -0.038286658249     -0.004212618115     -0.042499276364
 DF-MP2-F12/3*C(FIX)                   -0.036087906618     -0.003930902360     -0.040018808978
 DF-MP2-F12/3C(FIX)                    -0.036030485955     -0.004065864933     -0.040096350888

 DF-MP2-F12 correlation energies:
 ================================
 Approx.                                    Singlet             Triplet             Ecorr            Total Energy
 DF-MP2                                -0.291112320777     -0.152382506811     -0.443494827588   -115.543614163933
 DF-MP2-F12/3*C(DX,FIX)                -0.329398979026     -0.156595124925     -0.485994103952   -115.586113440296
 DF-MP2-F12/3*C(FIX)                   -0.327200227396     -0.156313409170     -0.483513636566   -115.583632972911
 DF-MP2-F12/3C(FIX)                    -0.327142806732     -0.156448371744     -0.483591178476   -115.583710514821

 SCS-DF-MP2 energies (F_SING= 1.20000  F_TRIP= 0.62222  F_PARALLEL= 0.33333):
 ============================================================================
 SCS-DF-MP2                            -0.444150566948   -115.544269903293
 SCS-DF-MP2-F12/3*C(DX,FIX)            -0.492715741452   -115.592835077797
 SCS-DF-MP2-F12/3*C(FIX)               -0.489901949692   -115.590021286037
 SCS-DF-MP2-F12/3C(FIX)                -0.489917021608   -115.590036357953

 Symmetry restored.
 Symmetry transformation completed.

 Number of N-1 electron functions:               7
 Number of N-2 electron functions:              28
 Number of singly external CSFs:               659
 Number of doubly external CSFs:            355020
 Total number of CSFs:                      355680

 Length of J-op  integral file:             103.62 MB
 Length of K-op  integral file:             127.95 MB
 Length of 3-ext integral record:             0.00 MB

 Memory could be reduced to 24.20 Mwords without degradation in triples

 Integral transformation finished. Total CPU:   6.47 sec, npass=  1  Memory used:   7.45 MW

 Reference energy:                   -115.10011934

 Adding F12 terms to K(Cij), methodcc=6,  factor= 1.0

 ITER.      SQ.NORM     CORR.ENERGY   TOTAL ENERGY   ENERGY CHANGE        DEN1      VAR(S)    VAR(P)  DIIS     TIME  TIME/IT
   1      1.11763621    -0.45288490  -115.55300424    -0.00932372     0.00168187  0.15D-02  0.19D-02  1  1    30.90     0.95
   2      1.12504776    -0.45324579  -115.55336513    -0.00036089    -0.00904919  0.24D-04  0.23D-03  2  2    37.55     0.97
   3      1.12777809    -0.45342320  -115.55354253    -0.00017741    -0.00186531  0.15D-04  0.13D-04  3  3    44.20     0.98
   4      1.12872584    -0.45344103  -115.55356037    -0.00001784    -0.00060049  0.86D-06  0.12D-05  4  4    50.86     0.99
   5      1.12888136    -0.45344259  -115.55356193    -0.00000156    -0.00003791  0.23D-06  0.10D-06  5  5    57.35     0.99
   6      1.12892389    -0.45344024  -115.55355957     0.00000236    -0.00000421  0.35D-07  0.96D-08  6  6    63.81     0.99
   7      1.12893497    -0.45343936  -115.55355870     0.00000087    -0.00000298  0.39D-08  0.14D-08  6  1    70.35     0.99
   8      1.12893677    -0.45343942  -115.55355876    -0.00000006     0.00000033  0.67D-09  0.20D-09  6  3    76.69     0.98
   9      1.12893822    -0.45343934  -115.55355868     0.00000008    -0.00000049  0.66D-10  0.29D-10  6  2    83.24     0.99
  10      1.12893833    -0.45343936  -115.55355869    -0.00000001     0.00000007  0.82D-11  0.31D-11  6  4    89.83     0.99
  11      1.12893826    -0.45343936  -115.55355870    -0.00000001     0.00000008  0.11D-11  0.45D-12  6  5    96.40     0.99
  12      1.12893820    -0.45343936  -115.55355870    -0.00000000     0.00000003  0.16D-12  0.60D-13  6  6   102.86     0.99

 Norm of t1 vector:      0.05003583      S-energy:     0.00000001      T1 diagnostic:  0.00945588
                                                                       D1 diagnostic:  0.02007543
                                                                       D2 diagnostic:  0.13616357 (internal)

 Adding energy correction from Wij-K(Fij), methodcc=6  factor= 1.0

  CCSD correlation energy              -0.453439364776
  MP2-F12 correction (uncoupled)       -0.038545095330
  C*T doubles correction               -0.001164598468
  f12b correction                       0.007098757734


 Total CPU time for triples:     20.41 sec


 RESULTS
 =======

  Reference energy                   -115.098766015641
  F12 singles correction               -0.001353320704

 F12 singles corrections added to reference energy

  New reference energy               -115.100119336345

  F12a singlet correction              -0.035791117404
  F12a triplet correction              -0.003918576394
  F12a total correction                -0.039709693799

 F12a corrections for ansatz F12/3C(FIX) added to CCSD energy

  CCSD-F12a singlet pair energy        -0.351223003610
  CCSD-F12a triplet pair energy        -0.141926064453
  CCSD-F12a correlation energy         -0.493149058575

  Triples (T) contribution             -0.016018577192
  Total correlation energy             -0.509167635767

  CCSD-F12a total energy             -115.593268394920
  CCSD[T]-F12a energy                -115.609840547654
  CCSD-T-F12a energy                 -115.609043080894
 !CCSD(T)-F12a total energy          -115.609286972111

 F12b corrections for ansatz F12/3C(FIX) added to CCSD(T)-F12a energy

  CCSD-F12b singlet pair energy        -0.344586330307
  CCSD-F12b triplet pair energy        -0.141463980022
  CCSD-F12b correlation energy         -0.486050300841

  Triples (T) contribution             -0.016018577192
  Total correlation energy             -0.502068878033

  CCSD-F12b total energy             -115.586169637186
  CCSD[T]-F12b energy                -115.602741789920
  CCSD-T-F12b energy                 -115.601944323160
 !CCSD(T)-F12b total energy          -115.602188214378

 Timing summary (sec):

 STEP                 CPU(USER)    SYS     CPU(TOT)    WALL
 Transformation          6.55      0.14      6.69      1.15
 CCSD iterations        78.36      3.91     82.27     11.88
 Triples                20.41      0.31     20.72      3.87
 MP2-F12                18.01      0.40     18.41     10.54
 F12b energy             5.24      0.26      5.50      0.81

 Program statistics:

 Available memory in ccsd:               499999650
 Min. memory needed in ccsd:               1149135
 Max. memory used in ccsd:                 1443104
 Max. memory used in cckext:               1888566 (13 integral passes)



 **********************************************************************************************************************************
 DATASETS  * FILE   NREC   LENGTH (MB)   RECORD NAMES
              1      20      368.30       500      610      700      900      950      970     1000      129      960     1100   
                                          VAR    BASINP    GEOM    SYMINP    ZMAT    AOBASIS   BASIS     P2S    ABASIS      S 
                                         1400     1410     1200     1210     1080     1600     1650     1300     1700     1380   
                                           T        V       H0       H01     AOSYM     SMH    MOLCAS    ERIS     OPER     JKOP   

              2      11        2.28       700     1000      520     2100      200     2101     4101     9001     7360     7350   
                                         GEOM     BASIS   MCVARS     RHF    OPTIONS    RHF     CPHF    DEN_MP2  F12ABS    EF12   
                                         7000   

 PROGRAMS   *        TOTAL   CCSD(T)   MP2-F12      OPTG    HF-SCF       INT
 CPU TIMES  *       637.32    128.60     21.77    461.57     13.51     11.76
 REAL TIME  *       156.65 SEC
 DISK USED  *         1.06 GB
 **********************************************************************************************************************************

 CCSD(T)-F12/cc-pVTZ-F12//HF/cc-pVTZ-F12 energy=   -115.602188214378

     CCSD(T)-F12         MP2-F12       OPTG(MP2)          HF-SCF
   -115.60218821   -115.58377546   -115.54232720   -115.09789979
 **********************************************************************************************************************************
 Molpro calculation terminated
