
 Working directory              : /tmp/asmola/molpro.jZChdK3anL/
 Global scratch directory       : /tmp/asmola/molpro.jZChdK3anL/
 Wavefunction directory         : /home/asmola/wfu/
 Main file repository           : /tmp/asmola/molpro.jZChdK3anL/

 id        : uclcc

 Nodes                        nprocs
 vincent.theory.phys.ucl.ac.uk    1
 GA implementation: MPI file
 GA implementation (serial work in mppx): MPI file

 Using customized tuning parameters: mindgm=1; mindgv=20; mindgc=4; mindgr=1; noblas=0; minvec=7
 default implementation of scratch files=df  


 Variables initialized (1015), CPU time= 0.00 sec
 ***,Methanol Ground State Energy with CCSD(T)-F12 and cc-pVQZ-F12
 memory,500,m;
 
 geometry={angstrom
 c
 o , 1, rco
 h , 2, roh, 1, acoh
 h1, 1, rch1, 2, aoch1  3  ahh1
 h2, 1, rch2, 2, aoch2, 3, ahh2
 h3, 1, rch3, 2, aoch3, 3, ahh3
 }
 
                                                ! Specify the initial values of the internal coordinates (in Angstroms and degrees)
 re1= 1.4296
 re2= 0.95887
 re3= 1.092294
 re4= 1.092294
 re5= 1.092294
 ae1= 107.9812
 ae2= 110.6646
 ae3= 110.6646
 ae4= 110.6646
 ahh1=60.00
 ahh2=180.00
 ahh3=300.00
 
 rco= 1.4296
 roh= 0.95887
 rch1= 1.092294
 rch2= 1.092294
 rch3= 1.092294
 acoh= 107.9812
 aoch1= 110.6646
 aoch2= 110.6646
 aoch3= 110.6646
 ahh1=60.00
 ahh2=180.00
 ahh3=300.00
 
                                                                                 ! Use the aug-cc-pVTZ-F12 basis set
 basis=aug-cc-pVTZ-F12
 
 hf
 optg,procedure=runccsd,savexyz=CH3OH_equilibrium_mp2.xyz
 runccsd = {hf;ccsd(t)-f12}
 
 
 Commands initialized (818), CPU time= 0.01 sec, 672 directives.
 Default parameters read. Elapsed time= 0.11 sec

 Checking input...
 Passed
1


                                         ***  PROGRAM SYSTEM MOLPRO  ***
                                       Copyright, TTI GmbH Stuttgart, 2015
                                    Version 2022.1 linked Mar  3 2022 23:20:00


 **********************************************************************************************************************************
 LABEL *   Methanol Ground State Energy with CCSD(T)-F12 and cc-pVQZ-F12                 
  (14 PROC) 64 bit serial version                                                        DATE: 31-Jan-25          TIME: 15:09:16  
 **********************************************************************************************************************************

 SHA1:             31073afc4d8441e10870424e0d77336a33bc4286
 **********************************************************************************************************************************

 Memory per process:       500 MW
 Total memory per node:    500 MW

 GA preallocation disabled
 GA check disabled

 Variable memory set to 500.0 MW

 SETTING RE1            =         1.42960000                                  
 SETTING RE2            =         0.95887000                                  
 SETTING RE3            =         1.09229400                                  
 SETTING RE4            =         1.09229400                                  
 SETTING RE5            =         1.09229400                                  
 SETTING AE1            =       107.98120000                                  
 SETTING AE2            =       110.66460000                                  
 SETTING AE3            =       110.66460000                                  
 SETTING AE4            =       110.66460000                                  
 SETTING AHH1           =        60.00000000                                  
 SETTING AHH2           =       180.00000000                                  
 SETTING AHH3           =       300.00000000                                  
 SETTING RCO            =         1.42960000                                  
 SETTING ROH            =         0.95887000                                  
 SETTING RCH1           =         1.09229400                                  
 SETTING RCH2           =         1.09229400                                  
 SETTING RCH3           =         1.09229400                                  
 SETTING ACOH           =       107.98120000                                  
 SETTING AOCH1          =       110.66460000                                  
 SETTING AOCH2          =       110.66460000                                  
 SETTING AOCH3          =       110.66460000                                  
 SETTING AHH1           =        60.00000000                                  
 SETTING AHH2           =       180.00000000                                  
 SETTING AHH3           =       300.00000000                                  
 SETTING BASIS          =    AUG-CC-PVTZ-F12


 Recomputing integrals since basis changed


 Using spherical harmonics

 Library entry C      S cc-pVTZ-F12          selected for orbital group  1
 Library entry C      P cc-pVTZ-F12          selected for orbital group  1
 Library entry C      D cc-pVTZ-F12          selected for orbital group  1
 Library entry C      D vtz-f12-diff         selected for orbital group  1
 Library entry C      F cc-pVTZ-F12          selected for orbital group  1
 Library entry C      F vtz-f12-diff         selected for orbital group  1
 Library entry O      S cc-pVTZ-F12          selected for orbital group  2
 Library entry O      P cc-pVTZ-F12          selected for orbital group  2
 Library entry O      D cc-pVTZ-F12          selected for orbital group  2
 Library entry O      D vtz-f12-diff         selected for orbital group  2
 Library entry O      F cc-pVTZ-F12          selected for orbital group  2
 Library entry O      F vtz-f12-diff         selected for orbital group  2
 Library entry H      S cc-pVTZ-F12          selected for orbital group  3
 Library entry H      P cc-pVTZ-F12          selected for orbital group  3
 Library entry H      P vtz-f12-diff         selected for orbital group  3
 Library entry H      D cc-pVTZ-F12          selected for orbital group  3
 Library entry H      D vtz-f12-diff         selected for orbital group  3


 PROGRAM * SEWARD (Integral evaluation for generally contracted gaussian basis sets)     Author: Roland Lindh, 1990

 Geometry written to block  1 of record 700

 Orientation using atomic masses  
 Molecule type: Asymmetric top
 Symmetry elements: X
 Rotational constants:      23.6333757     24.5065391    128.9114827 GHz  (calculated with average atomic masses)

 Point group  Cs  



 ATOMIC COORDINATES

 NR  ATOM    CHARGE       X              Y              Z

   1  C       6.00    0.000000000    0.021622205   -1.383678043
   2  O       8.00    0.000000000   -0.126383340    1.313817109
   3  H       1.00    0.000000000    1.563882378    1.966773405
   4  H1      1.00    1.672584827    1.025746373   -2.058106820
   5  H3      1.00   -1.672584827    1.025746373   -2.058106820
   6  H2      1.00    0.000000000   -1.866904676   -2.216820134

 Bond lengths in Bohr (Angstrom)

 1-2  2.701552468  1-4  2.064136508  1-5  2.064136508  1-6  2.064136508  2-3  1.812001689
     ( 1.429600000)     ( 1.092294000)     ( 1.092294000)     ( 1.092294000)     ( 0.958870000)

 Bond angles

  1-2-3  107.98120000   2-1-4  110.66460000   2-1-5  110.66460000   2-1-6  110.66460000

  4-1-5  108.25192757   4-1-6  108.25192757   5-1-6  108.25192757

 NUCLEAR CHARGE:                   18
 NUMBER OF PRIMITIVE AOS:         296
 NUMBER OF SYMMETRY AOS:          262
 NUMBER OF CONTRACTIONS:          234   (  146A'  +   88A"  )
 NUMBER OF INNER CORE ORBITALS:     0   (    0A'  +    0A"  )
 NUMBER OF OUTER CORE ORBITALS:     2   (    2A'  +    0A"  )
 NUMBER OF VALENCE ORBITALS:       12   (    9A'  +    3A"  )


 NUCLEAR REPULSION ENERGY   40.16373301

 Eigenvalues of metric

         1 0.273E-04 0.411E-04 0.464E-04 0.746E-04 0.145E-03 0.244E-03 0.275E-03 0.356E-03
         2 0.332E-04 0.277E-03 0.483E-03 0.659E-03 0.953E-03 0.111E-02 0.135E-02 0.177E-02


 Contracted 2-electron integrals neglected if value below      1.0D-12
 AO integral compression algorithm  1   Integral accuracy      1.0D-12

     1183.056 MB (compressed) written to integral file ( 63.5%)


 NUMBER OF SORTED TWO-ELECTRON INTEGRALS:  191319820.     BUFFER LENGTH:  32768
 NUMBER OF SEGMENTS:  12  SEGMENT LENGTH:   15999921      RECORD LENGTH: 524288

 Memory used in sort:      16.56 MW

 SORT1 READ   232957557. AND WROTE   188971062. INTEGRALS IN    545 RECORDS. CPU TIME:     2.00 SEC, REAL TIME:     3.04 SEC
 SORT2 READ   188971062. AND WROTE   191319820. INTEGRALS IN   4513 RECORDS. CPU TIME:     2.11 SEC, REAL TIME:     2.72 SEC

 FILE SIZES:   FILE 1:  1214.5 MBYTE,  FILE 4:  2285.9 MBYTE,   TOTAL:   3500.5 MBYTE

 OPERATOR DM      FOR CENTER  0  COORDINATES:    0.000000    0.000000    0.000000


 **********************************************************************************************************************************
 DATASETS  * FILE   NREC   LENGTH (MB)   RECORD NAMES
              1      19      983.65       500      610      700      900      950      970     1000      129      960     1100   
                                          VAR    BASINP    GEOM    SYMINP    ZMAT    AOBASIS   BASIS     P2S    ABASIS      S 
                                         1400     1410     1200     1210     1080     1600     1650     1300     1700   
                                           T        V       H0       H01     AOSYM     SMH    MOLCAS    ERIS     OPER   

 PROGRAMS   *        TOTAL       INT
 CPU TIMES  *        61.80     61.68
 REAL TIME  *        16.94 SEC
 DISK USED  *         3.26 GB
 **********************************************************************************************************************************


 Program * Restricted Hartree-Fock

 Orbital guess generated from atomic densities. Full valence occupancy:   11   3

 Initial occupancy:   7   2

 NELEC=   18   SYM=1   MS2= 0   THRE=1.0D-08   THRD=1.0D-06   THRG=1.0D-06  HFMA2=F  DIIS_START=2   DIIS_MAX=10   DIIS_INCORE=F

 Level shifts:    0.00 (CLOSED)    0.00 (OPEN)    0.30 (GAP_MIN)

 ITER           ETOT              DE          GRAD        DDIFF     DIIS  NEXP   TIME(IT)  TIME(TOT)  DIAG
   1     -115.06159340    -115.06159340     0.00D+00     0.52D-01     0     0       7.07     14.08    start
   2     -115.08990197      -0.02830857     0.58D-02     0.53D-02     1     0       7.18     21.26    diag
   3     -115.09744947      -0.00754750     0.32D-02     0.17D-02     2     0       7.65     28.91    diag
   4     -115.09798204      -0.00053257     0.63D-03     0.47D-03     3     0       7.63     36.54    diag
   5     -115.09801632      -0.00003429     0.13D-03     0.11D-03     4     0       6.99     43.53    diag
   6     -115.09801787      -0.00000155     0.24D-04     0.23D-04     5     0       7.15     50.68    diag
   7     -115.09801794      -0.00000007     0.49D-05     0.54D-05     6     0       7.08     57.76    diag
   8     -115.09801795      -0.00000000     0.12D-05     0.14D-05     7     0       7.07     64.83    fixocc
   9     -115.09801795      -0.00000000     0.39D-06     0.43D-06     8     0       6.90     71.73    diag
  10     -115.09801795      -0.00000000     0.97D-07     0.92D-07     0     0       7.17     78.90    diag/orth

 Final occupancy:   7   2

 !RHF STATE 1.1 Energy               -115.098017949037
  RHF One-electron energy            -236.587698767358
  RHF Two-electron energy              81.325947809601
  RHF Kinetic energy                  114.949132432403
  RHF Nuclear energy                   40.163733008720
  RHF Virial quotient                  -1.001295229581

 !RHF STATE 1.1 Dipole moment           0.00000000     0.59190619    -0.41133576
 Dipole moment /Debye                   0.00000000     1.50447548    -1.04551123

 Orbital energies:

           1.1          2.1          3.1          4.1          5.1          6.1          7.1          8.1          9.1
    -20.556373   -11.272251    -1.354231    -0.926027    -0.688305    -0.595843    -0.504085     0.045075     0.048985

           1.2          2.2          3.2          4.2
     -0.619180    -0.451616     0.056062     0.125954


 HOMO      2.2    -0.451616 =     -12.2891eV
 LUMO      8.1     0.045075 =       1.2266eV
 LUMO-HOMO         0.496691 =      13.5157eV

 Orbitals saved in record  2100.2


 **********************************************************************************************************************************
 DATASETS  * FILE   NREC   LENGTH (MB)   RECORD NAMES
              1      19      983.65       500      610      700      900      950      970     1000      129      960     1100   
                                          VAR    BASINP    GEOM    SYMINP    ZMAT    AOBASIS   BASIS     P2S    ABASIS      S 
                                         1400     1410     1200     1210     1080     1600     1650     1300     1700   
                                           T        V       H0       H01     AOSYM     SMH    MOLCAS    ERIS     OPER   

              2       4        0.89       700     1000      520     2100   
                                         GEOM     BASIS   MCVARS     RHF  

 PROGRAMS   *        TOTAL    HF-SCF       INT
 CPU TIMES  *       140.74     78.94     61.68
 REAL TIME  *        32.29 SEC
 DISK USED  *         3.26 GB
 **********************************************************************************************************************************


 PROGRAM * OPT (Geometry optimization)     Authors: F. Eckert and H.-J. Werner


 BFGS update of hessian

 Geometry optimization using procedure=RUNCCSD

 Running procedure: RUNCCSD


 Program * Restricted Hartree-Fock

 Molecular orbitals read from record     2100.2  Type=RHF/CANONICAL  

 Initial occupancy:   7   2

 NELEC=   18   SYM=1   MS2= 0   THRE=1.0D-08   THRD=1.0D-06   THRG=1.0D-06  HFMA2=F  DIIS_START=2   DIIS_MAX=10   DIIS_INCORE=F

 Level shifts:    0.00 (CLOSED)    0.00 (OPEN)    0.30 (GAP_MIN)

 ITER           ETOT              DE          GRAD        DDIFF     DIIS  NEXP   TIME(IT)  TIME(TOT)  DIAG
   1     -115.09801795    -115.09801795     0.00D+00     0.53D-01     0     0       7.22      7.22    start
   2     -115.09801795      -0.00000000     0.41D-07     0.38D-07     1     0       7.17     14.39    diag

 Final occupancy:   7   2

 !RHF STATE 1.1 Energy               -115.098017949040
  RHF One-electron energy            -236.587694422412
  RHF Two-electron energy              81.325943464651
  RHF Kinetic energy                  114.949130506551
  RHF Nuclear energy                   40.163733008720
  RHF Virial quotient                  -1.001295246357

 !RHF STATE 1.1 Dipole moment           0.00000000     0.59190571    -0.41133656
 Dipole moment /Debye                   0.00000000     1.50447424    -1.04551326

 Orbital energies:

           1.1          2.1          3.1          4.1          5.1          6.1          7.1          8.1          9.1
    -20.556373   -11.272247    -1.354230    -0.926026    -0.688304    -0.595842    -0.504084     0.045075     0.048985

           1.2          2.2          3.2          4.2
     -0.619179    -0.451616     0.056062     0.125954


 HOMO      2.2    -0.451616 =     -12.2891eV
 LUMO      8.1     0.045075 =       1.2266eV
 LUMO-HOMO         0.496691 =      13.5157eV

 Orbitals saved in record  2101.2


 **********************************************************************************************************************************
 DATASETS  * FILE   NREC   LENGTH (MB)   RECORD NAMES
              1      19      983.65       500      610      700      900      950      970     1000      129      960     1100   
                                          VAR    BASINP    GEOM    SYMINP    ZMAT    AOBASIS   BASIS     P2S    ABASIS      S 
                                         1400     1410     1200     1210     1080     1600     1650     1300     1700   
                                           T        V       H0       H01     AOSYM     SMH    MOLCAS    ERIS     OPER   

              2       6        2.03       700     1000      520     2100      200     2101   
                                         GEOM     BASIS   MCVARS     RHF    OPTIONS    RHF  

 PROGRAMS   *        TOTAL    HF-SCF    HF-SCF       INT
 CPU TIMES  *       155.18     14.44     78.94     61.68
 REAL TIME  *        35.09 SEC
 DISK USED  *         3.26 GB
 **********************************************************************************************************************************


 PROGRAM * CCSD (Closed-shell coupled cluster)     Authors: C. Hampel, H.-J. Werner, 1991, M. Deegan, P.J. Knowles, 1992

                                  CCSD-F12 implementation by  H.-J. Werner, 2007

                   Density fitting integral evaluation by F.R. Manby, 2003,2007, G. Knizia, 2010


 Basis set VTZ-F12/JKFIT generated.      Number of basis functions:   392 
 Basis set CC-PVTZ-F12/OPTRI generated.  Number of basis functions:   314 
 Basis set AUG-CC-PVTZ-F12/MP2FIT generated. Number of basis functions:   396 

 Convergence thresholds:  THRVAR = 1.00D-12  THRDEN = 1.00D-08

 CCSD(T)     terms to be evaluated (factor= 1.000)


 Number of core orbitals:           2 (   2   0 )
 Number of closed-shell orbitals:   7 (   5   2 )
 Number of external orbitals:     225 ( 139  86 )

 Molecular orbitals read from record     2101.2  Type=RHF/CANONICAL  

 MP2-F12 correlation treatment (H.-J. Werner, 2006)
 ==================================================

 Using MP2-F12 with ansatz 3C(FIX)

 Using projected zeroth-order Hamiltonian (+Z)

 FOCKRIB=T FOCKRIC=T FOCKRIP=T CABSP=T CABSA=T CABSK=T CABSF=T GBC=F EBC=F DMAT=T NOFIK=T NOPAO=1 SOLVE=-1  USEPAO=0
 EXCH_A= T EXCH_B= F EXCH_C= F EXCH_P= F

 Geminal basis:    OPTFULL  GEM_TYPE=SLATER  BETA=1.0  NGEM=6

 Optimizing Gaussian exponents for each gem_beta

 Geminal optimization for beta= 1.0000
 Weight function:   m=0, omega= 1.4646

 Augmented Hessian optimization of geminal fit. Trust ratio= 0.40000
 Convergence reached after   2 iterations. Final gradient= 8.66D-16, Step= 4.23D-06, Delta= 1.28D-09

 Alpha:                 0.19532     0.81920     2.85917     9.50073    35.69989   197.79328
 Coeff:                 0.27070     0.30552     0.18297     0.10986     0.06810     0.04224


 Symmetry turned off. Reference energy:       -115.098017949040

 All pairs explicitly correlated. Number of r12-pairs:           28

 Excluding core orbitals from MO domains

 AO(A)-basis ORBITAL           loaded. Number of functions:     234
 RI(R)-basis CC-PVTZ-F12/OPTRI loaded. Number of functions:     314
 DF-basis VTZ-F12/JKFIT        loaded. Number of functions:     392

 Screening thresholds:   THRAO=  1.00D-10  THRMO=  1.00D-10  THRPROD=  1.00D-10
                         THRSW=  1.00D-07  THROV=  1.00D-12  THRAOF12= 1.00D-08

 CPU time for Fock operators                      7.49 sec

 Construction of ABS:
 Smallest eigenvalue of S          4.21E-04  (threshold= 1.00E-08)
 Ratio eigmin/eigmax               5.39E-05  (threshold= 1.00E-09)
 Smallest eigenvalue of S kept     4.21E-04  (threshold= 4.21E-04, 0 functions deleted, 314 kept)

 Construction of CABS:
 Smallest eigenvalue of S          1.72E-07  (threshold= 1.00E-08)
 Ratio eigmin/eigmax               1.72E-07  (threshold= 1.00E-09)
 Smallest eigenvalue of S kept     1.72E-07  (threshold= 1.72E-07, 0 functions deleted, 314 kept)

 CPU time for CABS singles                        0.19 sec

 CABS-singles contribution of  -0.00127197 patched into reference energy.
 New reference energy        -115.09928991

 AO(A)-basis ORBITAL           loaded. Number of functions:     234
 RI(R)-basis CC-PVTZ-F12/OPTRI loaded. Number of functions:     314
 DF-basis AUG-CC-PVTZ-F12/MP2FIloaded. Number of functions:     396

 Screening thresholds:   THRAO=  1.00D-10  THRMO=  1.00D-10  THRPROD=  1.00D-10
                         THRSW=  1.00D-07  THROV=  1.00D-12  THRAOF12= 1.00D-08

 CPU time for 3-index integral evaluation         8.25 sec
 CPU time for first  half transformation          1.35 sec ( 2781.0 MFLOP/sec)
 CPU time for second half transformation          0.05 sec ( 1634.6 MFLOP/sec)
 CPU time for sorting                             0.06 sec
 CPU time for fitting                             0.13 sec ( 9710.5 MFLOP/sec)
 CPU time for tilde quantities                    0.17 sec (10331.4 MFLOP/sec)
 CPU time for assembly                            0.99 sec (16441.0 MFLOP/sec)
 CPU time for tranop_f12                          2.54 sec ( 9481.0 MFLOP/sec)
 CPU time for f12 integrals (total)              17.63 sec, Elapsed time:      7.21 sec
 CPU time for f12 matrices (total)                0.85 sec, Elapsed time:      0.12 sec

 Diagonal F12 approximation with fixed coefficients:  TSING= 0.500,  TTRIP= 0.250 (scaled by -1/beta)

 DF-MP2-F12 energy corrections:
 ==============================
 Approx.                                    Singlet             Triplet             Total
 DF-MP2-F12/3*C(DX,FIX)                -0.037641186066     -0.004108233412     -0.041749419478
 DF-MP2-F12/3*C(FIX)                   -0.035419796459     -0.003806644117     -0.039226440576
 DF-MP2-F12/3C(FIX)                    -0.035346206473     -0.003936867477     -0.039283073950

 DF-MP2-F12 correlation energies:
 ================================
 Approx.                                    Singlet             Triplet             Ecorr            Total Energy
 DF-MP2                                -0.292008160707     -0.152494329734     -0.444502490441   -115.543792404847
 DF-MP2-F12/3*C(DX,FIX)                -0.329649346773     -0.156602563146     -0.486251909919   -115.585541824325
 DF-MP2-F12/3*C(FIX)                   -0.327427957166     -0.156300973851     -0.483728931017   -115.583018845423
 DF-MP2-F12/3C(FIX)                    -0.327354367180     -0.156431197211     -0.483785564391   -115.583075478797

 SCS-DF-MP2 energies (F_SING= 1.20000  F_TRIP= 0.62222  F_PARALLEL= 0.33333):
 ============================================================================
 SCS-DF-MP2                            -0.445295153572   -115.544585067978
 SCS-DF-MP2-F12/3*C(DX,FIX)            -0.493020810974   -115.592310725380
 SCS-DF-MP2-F12/3*C(FIX)               -0.490167487884   -115.589457402290
 SCS-DF-MP2-F12/3C(FIX)                -0.490160207770   -115.589450122176

 Symmetry restored.
 Symmetry transformation completed.

 Number of N-1 electron functions:               7
 Number of N-2 electron functions:              28
 Number of singly external CSFs:               867
 Number of doubly external CSFs:            627264
 Total number of CSFs:                      628132

 Length of J-op  integral file:             141.70 MB
 Length of K-op  integral file:             185.29 MB
 Length of 3-ext integral record:             0.00 MB

 Memory could be reduced to 56.27 Mwords without degradation in triples

 Integral transformation finished. Total CPU:  36.54 sec, npass=  1  Memory used:  17.06 MW

 Reference energy:                   -115.09928991

 Adding F12 terms to K(Cij), methodcc=6,  factor= 1.0

 ITER.      SQ.NORM     CORR.ENERGY   TOTAL ENERGY   ENERGY CHANGE        DEN1      VAR(S)    VAR(P)  DIIS     TIME  TIME/IT
   1      1.11819658    -0.45380754  -115.55309746    -0.00923694     0.00183906  0.15D-02  0.19D-02  1  1   120.48     5.43
   2      1.12571596    -0.45421047  -115.55350038    -0.00040292    -0.00913342  0.25D-04  0.24D-03  2  2   164.55     5.29
   3      1.12849890    -0.45439088  -115.55368080    -0.00018042    -0.00188893  0.15D-04  0.14D-04  3  3   207.23     4.96
   4      1.12946634    -0.45440872  -115.55369863    -0.00001783    -0.00060342  0.95D-06  0.13D-05  4  4   261.57     5.05
   5      1.12963143    -0.45441034  -115.55370025    -0.00000162    -0.00004177  0.28D-06  0.12D-06  5  5   309.04     5.11
   6      1.12967840    -0.45440796  -115.55369788     0.00000237    -0.00000455  0.45D-07  0.13D-07  6  6   358.16     5.09
   7      1.12969136    -0.45440704  -115.55369696     0.00000092    -0.00000319  0.56D-08  0.22D-08  6  1   406.56     5.05
   8      1.12969357    -0.45440703  -115.55369694     0.00000001     0.00000026  0.11D-08  0.35D-09  6  3   450.35     4.97
   9      1.12969546    -0.45440694  -115.55369686     0.00000008    -0.00000059  0.11D-09  0.47D-10  6  2   500.02     4.96
  10      1.12969572    -0.45440695  -115.55369687    -0.00000001     0.00000005  0.12D-10  0.52D-11  6  4   544.97     4.92
  11      1.12969563    -0.45440696  -115.55369688    -0.00000001     0.00000010  0.19D-11  0.95D-12  6  5   592.83     4.90
  12      1.12969556    -0.45440697  -115.55369688    -0.00000000     0.00000004  0.32D-12  0.97D-13  6  6   640.04     4.89
  13      1.12969553    -0.45440697  -115.55369688    -0.00000000     0.00000002  0.35D-13  0.15D-13  6  1   688.93     4.90

 Norm of t1 vector:      0.05066364      S-energy:    -0.00000000      T1 diagnostic:  0.00957453
                                                                       D1 diagnostic:  0.02034952
                                                                       D2 diagnostic:  0.13699203 (internal)

 Adding energy correction from Wij-K(Fij), methodcc=6  factor= 1.0

  CCSD correlation energy              -0.454406968547
  MP2-F12 correction (uncoupled)       -0.037885509409
  C*T doubles correction               -0.001064149992
  f12b correction                       0.007008495313


 Total CPU time for triples:     88.39 sec


 RESULTS
 =======

  Reference energy                   -115.098017949040
  F12 singles correction               -0.001271965365

 F12 singles corrections added to reference energy

  New reference energy               -115.099289914406

  F12a singlet correction              -0.035152385876
  F12a triplet correction              -0.003797273526
  F12a total correction                -0.038949659401

 F12a corrections for ansatz F12/3C(FIX) added to CCSD energy

  CCSD-F12a singlet pair energy        -0.351505885950
  CCSD-F12a triplet pair energy        -0.141850739678
  CCSD-F12a correlation energy         -0.493356627949

  Triples (T) contribution             -0.016173304465
  Total correlation energy             -0.509529932413

  CCSD-F12a total energy             -115.592646542355
  CCSD[T]-F12a energy                -115.609383146742
  CCSD-T-F12a energy                 -115.608571999863
 !CCSD(T)-F12a total energy          -115.608819846819

 F12b corrections for ansatz F12/3C(FIX) added to CCSD(T)-F12a energy

  CCSD-F12b singlet pair energy        -0.344949682155
  CCSD-F12b triplet pair energy        -0.141398448161
  CCSD-F12b correlation energy         -0.486348132636

  Triples (T) contribution             -0.016173304465
  Total correlation energy             -0.502521437101

  CCSD-F12b total energy             -115.585638047042
  CCSD[T]-F12b energy                -115.602374651429
  CCSD-T-F12b energy                 -115.601563504550
 !CCSD(T)-F12b total energy          -115.601811351507

 Timing summary (sec):

 STEP                 CPU(USER)    SYS     CPU(TOT)    WALL
 Transformation         38.53      0.97     39.50      4.92
 CCSD iterations       623.79     37.73    661.52     63.98
 Triples                88.39      1.02     89.41     12.21
 MP2-F12                27.00      0.64     27.64     13.09
 F12b energy            32.31      2.05     34.36      3.32

 Program statistics:

 Available memory in ccsd:               499999657
 Min. memory needed in ccsd:               2002999
 Max. memory used in ccsd:                 2527160
 Max. memory used in cckext:               3690607 (14 integral passes)



 **********************************************************************************************************************************
 DATASETS  * FILE   NREC   LENGTH (MB)   RECORD NAMES
              1      20     1146.73       500      610      700      900      950      970     1000      129      960     1100   
                                          VAR    BASINP    GEOM    SYMINP    ZMAT    AOBASIS   BASIS     P2S    ABASIS      S 
                                         1400     1410     1200     1210     1080     1600     1650     1300     1700     1380   
                                           T        V       H0       H01     AOSYM     SMH    MOLCAS    ERIS     OPER     JKOP   

              2       8        2.36       700     1000      520     2100      200     2101     7360     7350   
                                         GEOM     BASIS   MCVARS     RHF    OPTIONS    RHF    F12ABS    EF12   

 PROGRAMS   *        TOTAL   CCSD(T)    HF-SCF       INT
 CPU TIMES  *       965.25    810.05     78.94     61.68
 REAL TIME  *       132.74 SEC
 DISK USED  *         3.26 GB
 **********************************************************************************************************************************

 Geometry written to block  1 of record 700

 XYZ inputs for each point on the optimization path will be saved in files ch3oh_equilibrium_mp2_xx.xyz

 *** Long output written to logfile /scratch/vol1/asmola/Methanol/MolPro/RunMolPro/CH3OH_OPTG_CCSD-F12-VTZ.log ***

 The request for symmetry elements X, cannot be honoured
 ? Error
 ? Symmetry problem
 ? The problem occurs in zmatrix.f:zmat_orient

 GLOBAL ERROR fehler on processor   0                                         
