
 Working directory              : /tmp/asmola/molpro.oW3kSzyTfz/
 Global scratch directory       : /tmp/asmola/molpro.oW3kSzyTfz/
 Wavefunction directory         : /home/asmola/wfu/
 Main file repository           : /tmp/asmola/molpro.oW3kSzyTfz/

 id        : uclcc

 Nodes                        nprocs
 vincent.theory.phys.ucl.ac.uk    1
 GA implementation: MPI file
 GA implementation (serial work in mppx): MPI file

 Using customized tuning parameters: mindgm=1; mindgv=20; mindgc=4; mindgr=1; noblas=0; minvec=7
 default implementation of scratch files=df  


 Variables initialized (1015), CPU time= 0.01 sec
 ***,Methanol Ground State Energy extrapolating to the CBS limit using CCSD(T)-F12b
 memory,500,m;
 
 geometry={angstrom
 c
 o , 1, rco
 h , 2, roh, 1, acoh
 h1, 1, rch1, 2, aoch1  3  ahh1
 h2, 1, rch2, 2, aoch2, 3, ahh2
 h3, 1, rch3, 2, aoch3, 3, ahh3
 }
 
 rco= 1.4296
 roh= 0.95887
 rch1= 1.092294
 rch2= 1.092294
 rch3= 1.092294
 acoh= 107.9812
 aoch1= 110.6646
 aoch2= 110.6646
 aoch3= 110.6646
 ahh1=60.00
 ahh2=180.00
 ahh3=300.00
 
 basis=aug-cc-pVTZ-F12
 hf
 frozen
 ccsd(t)-f12
 extrapolate,basis=aug-cc-pVTZ-F12:aug-cc-pVQZ-F12
 
 table,basissets,energr,energy-energr,energy
 head,basis,ehf,ecorr,etot
 
 
                                                                                 ! Output the energy
 
 Commands initialized (818), CPU time= 0.01 sec, 672 directives.
 Default parameters read. Elapsed time= 0.05 sec

 Checking input...
 Passed
1


                                         ***  PROGRAM SYSTEM MOLPRO  ***
                                       Copyright, TTI GmbH Stuttgart, 2015
                                    Version 2022.1 linked Mar  3 2022 23:20:00


 **********************************************************************************************************************************
 LABEL *   Methanol Ground State Energy extrapolating to the CBS limit using CCSD        
  (14 PROC) 64 bit serial version                                                        DATE: 26-Jan-25          TIME: 14:36:44  
 **********************************************************************************************************************************

 SHA1:             31073afc4d8441e10870424e0d77336a33bc4286
 **********************************************************************************************************************************

 Memory per process:       500 MW
 Total memory per node:    500 MW

 GA preallocation disabled
 GA check disabled

 Variable memory set to 500.0 MW

 SETTING RCO            =         1.42960000                                  
 SETTING ROH            =         0.95887000                                  
 SETTING RCH1           =         1.09229400                                  
 SETTING RCH2           =         1.09229400                                  
 SETTING RCH3           =         1.09229400                                  
 SETTING ACOH           =       107.98120000                                  
 SETTING AOCH1          =       110.66460000                                  
 SETTING AOCH2          =       110.66460000                                  
 SETTING AOCH3          =       110.66460000                                  
 SETTING AHH1           =        60.00000000                                  
 SETTING AHH2           =       180.00000000                                  
 SETTING AHH3           =       300.00000000                                  
 SETTING BASIS          =    AUG-CC-PVTZ-F12


 Recomputing integrals since basis changed


 Using spherical harmonics

 Library entry C      S cc-pVTZ-F12          selected for orbital group  1
 Library entry C      P cc-pVTZ-F12          selected for orbital group  1
 Library entry C      D cc-pVTZ-F12          selected for orbital group  1
 Library entry C      D vtz-f12-diff         selected for orbital group  1
 Library entry C      F cc-pVTZ-F12          selected for orbital group  1
 Library entry C      F vtz-f12-diff         selected for orbital group  1
 Library entry O      S cc-pVTZ-F12          selected for orbital group  2
 Library entry O      P cc-pVTZ-F12          selected for orbital group  2
 Library entry O      D cc-pVTZ-F12          selected for orbital group  2
 Library entry O      D vtz-f12-diff         selected for orbital group  2
 Library entry O      F cc-pVTZ-F12          selected for orbital group  2
 Library entry O      F vtz-f12-diff         selected for orbital group  2
 Library entry H      S cc-pVTZ-F12          selected for orbital group  3
 Library entry H      P cc-pVTZ-F12          selected for orbital group  3
 Library entry H      P vtz-f12-diff         selected for orbital group  3
 Library entry H      D cc-pVTZ-F12          selected for orbital group  3
 Library entry H      D vtz-f12-diff         selected for orbital group  3


 PROGRAM * SEWARD (Integral evaluation for generally contracted gaussian basis sets)     Author: Roland Lindh, 1990

 Geometry written to block  1 of record 700

 Orientation using atomic masses  
 Molecule type: Asymmetric top
 Symmetry elements: X
 Rotational constants:      23.6333757     24.5065391    128.9114827 GHz  (calculated with average atomic masses)

 Point group  Cs  



 ATOMIC COORDINATES

 NR  ATOM    CHARGE       X              Y              Z

   1  C       6.00    0.000000000    0.021622205   -1.383678043
   2  O       8.00    0.000000000   -0.126383340    1.313817109
   3  H       1.00    0.000000000    1.563882378    1.966773405
   4  H1      1.00    1.672584827    1.025746373   -2.058106820
   5  H3      1.00   -1.672584827    1.025746373   -2.058106820
   6  H2      1.00    0.000000000   -1.866904676   -2.216820134

 Bond lengths in Bohr (Angstrom)

 1-2  2.701552468  1-4  2.064136508  1-5  2.064136508  1-6  2.064136508  2-3  1.812001689
     ( 1.429600000)     ( 1.092294000)     ( 1.092294000)     ( 1.092294000)     ( 0.958870000)

 Bond angles

  1-2-3  107.98120000   2-1-4  110.66460000   2-1-5  110.66460000   2-1-6  110.66460000

  4-1-5  108.25192757   4-1-6  108.25192757   5-1-6  108.25192757

 NUCLEAR CHARGE:                   18
 NUMBER OF PRIMITIVE AOS:         296
 NUMBER OF SYMMETRY AOS:          262
 NUMBER OF CONTRACTIONS:          234   (  146A'  +   88A"  )
 NUMBER OF INNER CORE ORBITALS:     0   (    0A'  +    0A"  )
 NUMBER OF OUTER CORE ORBITALS:     2   (    2A'  +    0A"  )
 NUMBER OF VALENCE ORBITALS:       12   (    9A'  +    3A"  )


 NUCLEAR REPULSION ENERGY   40.16373301

 Eigenvalues of metric

         1 0.273E-04 0.411E-04 0.464E-04 0.746E-04 0.145E-03 0.244E-03 0.275E-03 0.356E-03
         2 0.332E-04 0.277E-03 0.483E-03 0.659E-03 0.953E-03 0.111E-02 0.135E-02 0.177E-02


 Contracted 2-electron integrals neglected if value below      1.0D-12
 AO integral compression algorithm  1   Integral accuracy      1.0D-12

     1183.056 MB (compressed) written to integral file ( 63.5%)


 NUMBER OF SORTED TWO-ELECTRON INTEGRALS:  191319820.     BUFFER LENGTH:  32768
 NUMBER OF SEGMENTS:  12  SEGMENT LENGTH:   15999921      RECORD LENGTH: 524288

 Memory used in sort:      16.56 MW

 SORT1 READ   232957557. AND WROTE   188971062. INTEGRALS IN    545 RECORDS. CPU TIME:     1.99 SEC, REAL TIME:     2.82 SEC
 SORT2 READ   188971062. AND WROTE   191319820. INTEGRALS IN   4513 RECORDS. CPU TIME:     2.03 SEC, REAL TIME:     2.63 SEC

 FILE SIZES:   FILE 1:  1214.5 MBYTE,  FILE 4:  2285.9 MBYTE,   TOTAL:   3500.5 MBYTE

 OPERATOR DM      FOR CENTER  0  COORDINATES:    0.000000    0.000000    0.000000


 **********************************************************************************************************************************
 DATASETS  * FILE   NREC   LENGTH (MB)   RECORD NAMES
              1      19      983.65       500      610      700      900      950      970     1000      129      960     1100   
                                          VAR    BASINP    GEOM    SYMINP    ZMAT    AOBASIS   BASIS     P2S    ABASIS      S 
                                         1400     1410     1200     1210     1080     1600     1650     1300     1700   
                                           T        V       H0       H01     AOSYM     SMH    MOLCAS    ERIS     OPER   

 PROGRAMS   *        TOTAL       INT
 CPU TIMES  *        50.02     49.92
 REAL TIME  *        14.18 SEC
 DISK USED  *         3.26 GB
 **********************************************************************************************************************************


 Program * Restricted Hartree-Fock

 Orbital guess generated from atomic densities. Full valence occupancy:   11   3

 Initial occupancy:   7   2

 NELEC=   18   SYM=1   MS2= 0   THRE=1.0D-08   THRD=3.2D-06   THRG=3.2D-06  HFMA2=F  DIIS_START=2   DIIS_MAX=10   DIIS_INCORE=F

 Level shifts:    0.00 (CLOSED)    0.00 (OPEN)    0.30 (GAP_MIN)

 ITER           ETOT              DE          GRAD        DDIFF     DIIS  NEXP   TIME(IT)  TIME(TOT)  DIAG
   1     -115.06159340    -115.06159340     0.00D+00     0.52D-01     0     0       7.25     14.10    start
   2     -115.08990197      -0.02830857     0.58D-02     0.53D-02     1     0       7.46     21.56    diag
   3     -115.09744947      -0.00754750     0.32D-02     0.17D-02     2     0       7.17     28.73    diag
   4     -115.09798204      -0.00053257     0.63D-03     0.47D-03     3     0       6.84     35.57    diag
   5     -115.09801632      -0.00003429     0.13D-03     0.11D-03     4     0       7.52     43.09    diag
   6     -115.09801787      -0.00000155     0.24D-04     0.23D-04     5     0       6.81     49.90    diag
   7     -115.09801794      -0.00000007     0.49D-05     0.54D-05     6     0       6.75     56.65    diag
   8     -115.09801795      -0.00000000     0.12D-05     0.14D-05     7     0       6.73     63.38    fixocc
   9     -115.09801795      -0.00000000     0.39D-06     0.36D-06     0     0       6.72     70.10    diag

 Final occupancy:   7   2

 !RHF STATE 1.1 Energy               -115.098017948968
  RHF One-electron energy            -236.587666106259
  RHF Two-electron energy              81.325915148571
  RHF Kinetic energy                  114.949109672257
  RHF Nuclear energy                   40.163733008720
  RHF Virial quotient                  -1.001295427839

 !RHF STATE 1.1 Dipole moment           0.00000000     0.59190874    -0.41133343
 Dipole moment /Debye                   0.00000000     1.50448196    -1.04550531

 Orbital energies:

           1.1          2.1          3.1          4.1          5.1          6.1          7.1          8.1          9.1
    -20.556369   -11.272240    -1.354228    -0.926024    -0.688304    -0.595840    -0.504083     0.045075     0.048985

           1.2          2.2          3.2          4.2
     -0.619177    -0.451613     0.056062     0.125954


 HOMO      2.2    -0.451613 =     -12.2890eV
 LUMO      8.1     0.045075 =       1.2266eV
 LUMO-HOMO         0.496688 =      13.5156eV

 Orbitals saved in record  2100.2


 **********************************************************************************************************************************
 DATASETS  * FILE   NREC   LENGTH (MB)   RECORD NAMES
              1      19      983.65       500      610      700      900      950      970     1000      129      960     1100   
                                          VAR    BASINP    GEOM    SYMINP    ZMAT    AOBASIS   BASIS     P2S    ABASIS      S 
                                         1400     1410     1200     1210     1080     1600     1650     1300     1700   
                                           T        V       H0       H01     AOSYM     SMH    MOLCAS    ERIS     OPER   

              2       4        0.89       700     1000      520     2100   
                                         GEOM     BASIS   MCVARS     RHF  

 PROGRAMS   *        TOTAL    HF-SCF       INT
 CPU TIMES  *       120.15     70.13     49.92
 REAL TIME  *        27.77 SEC
 DISK USED  *         3.26 GB
 **********************************************************************************************************************************


 PROGRAM * CCSD (Closed-shell coupled cluster)     Authors: C. Hampel, H.-J. Werner, 1991, M. Deegan, P.J. Knowles, 1992

                                  CCSD-F12 implementation by  H.-J. Werner, 2007

                   Density fitting integral evaluation by F.R. Manby, 2003,2007, G. Knizia, 2010


 Basis set VTZ-F12/JKFIT generated.      Number of basis functions:   392 
 Basis set CC-PVTZ-F12/OPTRI generated.  Number of basis functions:   314 
 Basis set AUG-CC-PVTZ-F12/MP2FIT generated. Number of basis functions:   396 

 Convergence thresholds:  THRVAR = 1.00D-08  THRDEN = 1.00D-06

 CCSD(T)     terms to be evaluated (factor= 1.000)


 Number of core orbitals:           2 (   2   0 )
 Number of closed-shell orbitals:   7 (   5   2 )
 Number of external orbitals:     225 ( 139  86 )

 Molecular orbitals read from record     2100.2  Type=RHF/CANONICAL  

 MP2-F12 correlation treatment (H.-J. Werner, 2006)
 ==================================================

 Using MP2-F12 with ansatz 3C(FIX)

 Using projected zeroth-order Hamiltonian (+Z)

 FOCKRIB=T FOCKRIC=T FOCKRIP=T CABSP=T CABSA=T CABSK=T CABSF=T GBC=F EBC=F DMAT=T NOFIK=T NOPAO=1 SOLVE=-1  USEPAO=0
 EXCH_A= T EXCH_B= F EXCH_C= F EXCH_P= F

 Geminal basis:    OPTFULL  GEM_TYPE=SLATER  BETA=1.0  NGEM=6

 Optimizing Gaussian exponents for each gem_beta

 Geminal optimization for beta= 1.0000
 Weight function:   m=0, omega= 1.4646

 Augmented Hessian optimization of geminal fit. Trust ratio= 0.40000
 Convergence reached after   2 iterations. Final gradient= 8.66D-16, Step= 4.23D-06, Delta= 1.28D-09

 Alpha:                 0.19532     0.81920     2.85917     9.50073    35.69989   197.79328
 Coeff:                 0.27070     0.30552     0.18297     0.10986     0.06810     0.04224


 Symmetry turned off. Reference energy:       -115.098017948968

 All pairs explicitly correlated. Number of r12-pairs:           28

 Excluding core orbitals from MO domains

 AO(A)-basis ORBITAL           loaded. Number of functions:     234
 RI(R)-basis CC-PVTZ-F12/OPTRI loaded. Number of functions:     314
 DF-basis VTZ-F12/JKFIT        loaded. Number of functions:     392

 Screening thresholds:   THRAO=  1.00D-10  THRMO=  1.00D-09  THRPROD=  1.00D-09
                         THRSW=  1.00D-05  THROV=  1.00D-12  THRAOF12= 1.00D-08

 CPU time for Fock operators                      7.47 sec

 Construction of ABS:
 Smallest eigenvalue of S          4.21E-04  (threshold= 1.00E-08)
 Ratio eigmin/eigmax               5.39E-05  (threshold= 1.00E-09)
 Smallest eigenvalue of S kept     4.21E-04  (threshold= 4.21E-04, 0 functions deleted, 314 kept)

 Construction of CABS:
 Smallest eigenvalue of S          1.72E-07  (threshold= 1.00E-08)
 Ratio eigmin/eigmax               1.72E-07  (threshold= 1.00E-09)
 Smallest eigenvalue of S kept     1.72E-07  (threshold= 1.72E-07, 0 functions deleted, 314 kept)

 CPU time for CABS singles                        0.17 sec

 CABS-singles contribution of  -0.00127196 patched into reference energy.
 New reference energy        -115.09928991

 AO(A)-basis ORBITAL           loaded. Number of functions:     234
 RI(R)-basis CC-PVTZ-F12/OPTRI loaded. Number of functions:     314
 DF-basis AUG-CC-PVTZ-F12/MP2FIloaded. Number of functions:     396

 Screening thresholds:   THRAO=  1.00D-10  THRMO=  1.00D-09  THRPROD=  1.00D-09
                         THRSW=  1.00D-05  THROV=  1.00D-12  THRAOF12= 1.00D-08

 CPU time for 3-index integral evaluation         8.48 sec
 CPU time for first  half transformation          1.07 sec ( 3508.8 MFLOP/sec)
 CPU time for second half transformation          0.07 sec ( 1167.6 MFLOP/sec)
 CPU time for sorting                             0.04 sec
 CPU time for fitting                             0.13 sec ( 9710.5 MFLOP/sec)
 CPU time for tilde quantities                    0.16 sec (10977.1 MFLOP/sec)
 CPU time for assembly                            0.75 sec (21702.2 MFLOP/sec)
 CPU time for tranop_f12                          2.03 sec (11863.0 MFLOP/sec)
 CPU time for f12 integrals (total)              16.37 sec, Elapsed time:      6.83 sec
 CPU time for f12 matrices (total)                0.75 sec, Elapsed time:      0.11 sec

 Diagonal F12 approximation with fixed coefficients:  TSING= 0.500,  TTRIP= 0.250 (scaled by -1/beta)

 DF-MP2-F12 energy corrections:
 ==============================
 Approx.                                    Singlet             Triplet             Total
 DF-MP2-F12/3*C(DX,FIX)                -0.037641160677     -0.004108228262     -0.041749388939
 DF-MP2-F12/3*C(FIX)                   -0.035419776297     -0.003806640128     -0.039226416426
 DF-MP2-F12/3C(FIX)                    -0.035346187324     -0.003936863411     -0.039283050735

 DF-MP2-F12 correlation energies:
 ================================
 Approx.                                    Singlet             Triplet             Ecorr            Total Energy
 DF-MP2                                -0.292007880664     -0.152494178196     -0.444502058860   -115.543791972378
 DF-MP2-F12/3*C(DX,FIX)                -0.329649041341     -0.156602406458     -0.486251447798   -115.585541361316
 DF-MP2-F12/3*C(FIX)                   -0.327427656961     -0.156300818324     -0.483728475286   -115.583018388803
 DF-MP2-F12/3C(FIX)                    -0.327354067988     -0.156431041607     -0.483785109595   -115.583075023113

 SCS-DF-MP2 energies (F_SING= 1.20000  F_TRIP= 0.62222  F_PARALLEL= 0.33333):
 ============================================================================
 SCS-DF-MP2                            -0.445294723230   -115.544584636747
 SCS-DF-MP2-F12/3*C(DX,FIX)            -0.493020346960   -115.592310260478
 SCS-DF-MP2-F12/3*C(FIX)               -0.490167030867   -115.589456944384
 SCS-DF-MP2-F12/3C(FIX)                -0.490159751919   -115.589449665437

 Symmetry restored.
 Symmetry transformation completed.

 Number of N-1 electron functions:               7
 Number of N-2 electron functions:              28
 Number of singly external CSFs:               867
 Number of doubly external CSFs:            627264
 Total number of CSFs:                      628132

 Length of J-op  integral file:             141.70 MB
 Length of K-op  integral file:             185.29 MB
 Length of 3-ext integral record:             0.00 MB

 Memory could be reduced to 56.27 Mwords without degradation in triples

 Integral transformation finished. Total CPU:  26.92 sec, npass=  1  Memory used:  17.06 MW

 Reference energy:                   -115.09928991

 Adding F12 terms to K(Cij), methodcc=6,  factor= 1.0

 ITER.      SQ.NORM     CORR.ENERGY   TOTAL ENERGY   ENERGY CHANGE        DEN1      VAR(S)    VAR(P)  DIIS     TIME  TIME/IT
   1      1.11819656    -0.45380757  -115.55309748    -0.00923740     0.00183863  0.15D-02  0.19D-02  1  1    87.50     3.49
   2      1.12571589    -0.45421049  -115.55350040    -0.00040292    -0.00913343  0.25D-04  0.24D-03  2  2   126.57     3.74
   3      1.12849879    -0.45439090  -115.55368081    -0.00018041    -0.00188894  0.15D-04  0.14D-04  3  3   164.51     3.79
   4      1.12946620    -0.45440873  -115.55369864    -0.00001783    -0.00060342  0.95D-06  0.13D-05  4  4   201.87     3.80
   5      1.12963127    -0.45441035  -115.55370026    -0.00000162    -0.00004177  0.28D-06  0.12D-06  5  5   237.70     3.77
   6      1.12967824    -0.45440798  -115.55369789     0.00000237    -0.00000455  0.45D-07  0.13D-07  6  6   273.45     3.74
   7      1.12969120    -0.45440706  -115.55369697     0.00000092    -0.00000319  0.56D-08  0.22D-08  6  1   309.60     3.73
   8      1.12969341    -0.45440704  -115.55369696     0.00000001     0.00000026  0.11D-08  0.35D-09  6  3   344.64     3.71

 Norm of t1 vector:      0.05064843      S-energy:    -0.00000044      T1 diagnostic:  0.00957165
                                                                       D1 diagnostic:  0.02033965
                                                                       D2 diagnostic:  0.13699232 (internal)

 Adding energy correction from Wij-K(Fij), methodcc=6  factor= 1.0

  CCSD correlation energy              -0.454407042679
  MP2-F12 correction (uncoupled)       -0.037885486215
  C*T doubles correction               -0.001064160115
  f12b correction                       0.007008464524


 Total CPU time for triples:     79.26 sec


 RESULTS
 =======

  Reference energy                   -115.098017948968
  F12 singles correction               -0.001271964550

 F12 singles corrections added to reference energy

  New reference energy               -115.099289913518

  F12a singlet correction              -0.035152375132
  F12a triplet correction              -0.003797271198
  F12a total correction                -0.038949646330

 F12a corrections for ansatz F12/3C(FIX) added to CCSD energy

  CCSD-F12a singlet pair energy        -0.351506426591
  CCSD-F12a triplet pair energy        -0.141849819167
  CCSD-F12a correlation energy         -0.493356689009

  Triples (T) contribution             -0.016173177771
  Total correlation energy             -0.509529866781

  CCSD-F12a total energy             -115.592646602527
  CCSD[T]-F12a energy                -115.609382992342
  CCSD-T-F12a energy                 -115.608571948859
 !CCSD(T)-F12a total energy          -115.608819780298

 F12b corrections for ansatz F12/3C(FIX) added to CCSD(T)-F12a energy

  CCSD-F12b singlet pair energy        -0.344950247469
  CCSD-F12b triplet pair energy        -0.141397533764
  CCSD-F12b correlation energy         -0.486348224485

  Triples (T) contribution             -0.016173177771
  Total correlation energy             -0.502521402256

  CCSD-F12b total energy             -115.585638138003
  CCSD[T]-F12b energy                -115.602374527818
  CCSD-T-F12b energy                 -115.601563484335
 !CCSD(T)-F12b total energy          -115.601811315774

 Timing summary (sec):

 STEP                 CPU(USER)    SYS     CPU(TOT)    WALL
 Transformation         27.54      0.64     28.18      3.70
 CCSD iterations       291.80     19.91    311.71     29.69
 Triples                79.26      0.83     80.09     10.50
 MP2-F12                25.49      0.52     26.01     12.49
 F12b energy            32.15      2.25     34.40      3.33

 Program statistics:

 Available memory in ccsd:               499999657
 Min. memory needed in ccsd:               2002999
 Max. memory used in ccsd:                 2527160
 Max. memory used in cckext:               3690607 ( 9 integral passes)



 **********************************************************************************************************************************
 DATASETS  * FILE   NREC   LENGTH (MB)   RECORD NAMES
              1      20     1146.73       500      610      700      900      950      970     1000      129      960     1100   
                                          VAR    BASINP    GEOM    SYMINP    ZMAT    AOBASIS   BASIS     P2S    ABASIS      S 
                                         1400     1410     1200     1210     1080     1600     1650     1300     1700     1380   
                                           T        V       H0       H01     AOSYM     SMH    MOLCAS    ERIS     OPER     JKOP   

              2       6        1.23       700     1000      520     2100     7360     7350   
                                         GEOM     BASIS   MCVARS     RHF    F12ABS    EF12   

 PROGRAMS   *        TOTAL   CCSD(T)    HF-SCF       INT
 CPU TIMES  *       576.44    456.27     70.13     49.92
 REAL TIME  *        87.56 SEC
 DISK USED  *         3.26 GB
 **********************************************************************************************************************************


 Extrapolating  CCSD(T)-F12  energy with  basissets AUG-CC-PVTZ-F12 AUG-CC-PVQZ-F12

 Running default procedure: HF-SCF000  CCSD(T)-F12

 *** Long output written to logfile /scratch/vol1/asmola/Methanol/MolPro/RunMolPro/CH3OH_Grid_CBS-Extrapolation-4.log ***

 Evaluating energy using basis set AUG-CC-PVQZ-F12

 Extrapolating correlation energy using function n^{-X} with X= 3.0

 L=3  E=    -0.50952987  EFIT=    -0.50952987
 L=4  E=    -0.51080889  EFIT=    -0.51080889

 E(CBS)=    -0.51174223  Coefficients:    0.0597

 Extrapolating correlation energy using function n^{-X} with X= 3.0

 L=3  E=    -0.49335669  EFIT=    -0.49335669
 L=4  E=    -0.49363355  EFIT=    -0.49363355

 E(CBS)=    -0.49383558  Coefficients:    0.0129

 BASIS           EREF            ECORRC          ECORR           ETOTC           ETOT
 AUG-CC-P   -115.09928991     -0.49335669     -0.50952987   -115.59264660   -115.60881978
 AUG-CC-P   -115.10073327     -0.49363355     -0.51080889   -115.59436682   -115.61154216
 CBS        -115.10073327     -0.49383558     -0.51174223   -115.59456886   -115.61247550



 **********************************************************************************************************************************
 DATASETS  * FILE   NREC   LENGTH (MB)   RECORD NAMES
              1      20     9247.86       500      610      700      900      950      970     1001      129      960     1100   
                                          VAR    BASINP    GEOM    SYMINP    ZMAT    AOBASIS   BASIS     P2S    ABASIS      S 
                                         1400     1410     1200     1210     1080     1600     1650     1300     1700     1380   
                                           T        V       H0       H01     AOSYM     SMH    MOLCAS    ERIS     OPER     JKOP   

              2       8        2.76       700     1000      520     2100     7360     7350     1001     2101   
                                         GEOM     BASIS   MCVARS     RHF    F12ABS    EF12     BASIS     RHF  

 PROGRAMS   *        TOTAL  EXTRAPOL    HF-SCF       INT   CCSD(T)    HF-SCF       INT
 CPU TIMES  *      4946.55   3143.42    600.30    626.36    456.27     70.13     49.92
 REAL TIME  *       708.89 SEC
 DISK USED  *        29.34 GB
 **********************************************************************************************************************************


 BASIS                  EHF          ECORR           ETOT
 AUG-CC-PVTZ-F12   -115.0992899   -0.50952987   -115.6088198
 AUG-CC-PVQZ-F12   -115.1007333   -0.51080889   -115.6115422
 CBS               -115.1007333   -0.51174223   -115.6124755
                                                  

 CCSD(T)-F12/aug-cc-pVTZ-F12:aug-cc-pVQZ-F12 energy=   -115.612475503504

     CCSD(T)-F12          HF-SCF     CCSD(T)-F12          HF-SCF
   -115.60733797   -115.10058440   -115.60181132   -115.09801795
 **********************************************************************************************************************************
 Molpro calculation terminated
