
 Working directory              : /tmp/asmola/molpro.UN4ELXT7NW/
 Global scratch directory       : /tmp/asmola/molpro.UN4ELXT7NW/
 Wavefunction directory         : /home/asmola/wfu/
 Main file repository           : /tmp/asmola/molpro.UN4ELXT7NW/

 id        : uclcc

 Nodes                        nprocs
 vincent.theory.phys.ucl.ac.uk    1
 GA implementation: MPI file
 GA implementation (serial work in mppx): MPI file

 Using customized tuning parameters: mindgm=1; mindgv=20; mindgc=4; mindgr=1; noblas=0; minvec=7
 default implementation of scratch files=df  


 Variables initialized (1015), CPU time= 0.00 sec
 ***,Methanol Ground State Energy extrapolating to the CBS limit using CCSD(T)-F12b
 memory,500,m;
 
 geometry={angstrom
 c
 o , 1, rco
 h , 2, roh, 1, acoh
 h1, 1, rch1, 2, aoch1  3  ahh1
 h2, 1, rch2, 2, aoch2, 3, ahh2
 h3, 1, rch3, 2, aoch3, 3, ahh3
 }
 
 rco= 1.4296
 roh= 0.95887
 rch1= 1.092294
 rch2= 1.092294
 rch3= 1.092294
 acoh= 107.9812
 aoch1= 110.6646
 aoch2= 110.6646
 aoch3= 110.6646
 ahh1=60.00
 ahh2=180.00
 ahh3=300.00
 
 basis=cc-pVTZ-F12
 hf
 ccsd(t)-f12
 extrapolate,basis=cc-pVTZ-F12:cc-pVQZ-F12
 
 table,basissets,energr,energy-energr,energy
 head,basis,ehf,ecorr,etot
 
 
                                                                                 ! Output the energy
 
 Commands initialized (818), CPU time= 0.01 sec, 672 directives.
 Default parameters read. Elapsed time= 0.06 sec

 Checking input...
 Passed
1


                                         ***  PROGRAM SYSTEM MOLPRO  ***
                                       Copyright, TTI GmbH Stuttgart, 2015
                                    Version 2022.1 linked Mar  3 2022 23:20:00


 **********************************************************************************************************************************
 LABEL *   Methanol Ground State Energy extrapolating to the CBS limit using CCSD        
  (14 PROC) 64 bit serial version                                                        DATE: 26-Jan-25          TIME: 13:26:50  
 **********************************************************************************************************************************

 SHA1:             31073afc4d8441e10870424e0d77336a33bc4286
 **********************************************************************************************************************************

 Memory per process:       500 MW
 Total memory per node:    500 MW

 GA preallocation disabled
 GA check disabled

 Variable memory set to 500.0 MW

 SETTING RCO            =         1.42960000                                  
 SETTING ROH            =         0.95887000                                  
 SETTING RCH1           =         1.09229400                                  
 SETTING RCH2           =         1.09229400                                  
 SETTING RCH3           =         1.09229400                                  
 SETTING ACOH           =       107.98120000                                  
 SETTING AOCH1          =       110.66460000                                  
 SETTING AOCH2          =       110.66460000                                  
 SETTING AOCH3          =       110.66460000                                  
 SETTING AHH1           =        60.00000000                                  
 SETTING AHH2           =       180.00000000                                  
 SETTING AHH3           =       300.00000000                                  
 SETTING BASIS          =    CC-PVTZ-F12


 Recomputing integrals since basis changed


 Using spherical harmonics

 Library entry C      S cc-pVTZ-F12          selected for orbital group  1
 Library entry C      P cc-pVTZ-F12          selected for orbital group  1
 Library entry C      D cc-pVTZ-F12          selected for orbital group  1
 Library entry C      F cc-pVTZ-F12          selected for orbital group  1
 Library entry O      S cc-pVTZ-F12          selected for orbital group  2
 Library entry O      P cc-pVTZ-F12          selected for orbital group  2
 Library entry O      D cc-pVTZ-F12          selected for orbital group  2
 Library entry O      F cc-pVTZ-F12          selected for orbital group  2
 Library entry H      S cc-pVTZ-F12          selected for orbital group  3
 Library entry H      P cc-pVTZ-F12          selected for orbital group  3
 Library entry H      D cc-pVTZ-F12          selected for orbital group  3


 PROGRAM * SEWARD (Integral evaluation for generally contracted gaussian basis sets)     Author: Roland Lindh, 1990

 Geometry written to block  1 of record 700

 Orientation using atomic masses  
 Molecule type: Asymmetric top
 Symmetry elements: X
 Rotational constants:      23.6333757     24.5065391    128.9114827 GHz  (calculated with average atomic masses)

 Point group  Cs  



 ATOMIC COORDINATES

 NR  ATOM    CHARGE       X              Y              Z

   1  C       6.00    0.000000000    0.021622205   -1.383678043
   2  O       8.00    0.000000000   -0.126383340    1.313817109
   3  H       1.00    0.000000000    1.563882378    1.966773405
   4  H1      1.00    1.672584827    1.025746373   -2.058106820
   5  H3      1.00   -1.672584827    1.025746373   -2.058106820
   6  H2      1.00    0.000000000   -1.866904676   -2.216820134

 Bond lengths in Bohr (Angstrom)

 1-2  2.701552468  1-4  2.064136508  1-5  2.064136508  1-6  2.064136508  2-3  1.812001689
     ( 1.429600000)     ( 1.092294000)     ( 1.092294000)     ( 1.092294000)     ( 0.958870000)

 Bond angles

  1-2-3  107.98120000   2-1-4  110.66460000   2-1-5  110.66460000   2-1-6  110.66460000

  4-1-5  108.25192757   4-1-6  108.25192757   5-1-6  108.25192757

 NUCLEAR CHARGE:                   18
 NUMBER OF PRIMITIVE AOS:         228
 NUMBER OF SYMMETRY AOS:          206
 NUMBER OF CONTRACTIONS:          178   (  114A'  +   64A"  )
 NUMBER OF INNER CORE ORBITALS:     0   (    0A'  +    0A"  )
 NUMBER OF OUTER CORE ORBITALS:     2   (    2A'  +    0A"  )
 NUMBER OF VALENCE ORBITALS:       12   (    9A'  +    3A"  )


 NUCLEAR REPULSION ENERGY   40.16373301

 Eigenvalues of metric

         1 0.891E-04 0.188E-03 0.310E-03 0.462E-03 0.495E-03 0.562E-03 0.621E-03 0.624E-03
         2 0.327E-03 0.571E-03 0.687E-03 0.180E-02 0.355E-02 0.488E-02 0.647E-02 0.854E-02


 Contracted 2-electron integrals neglected if value below      1.0D-11
 AO integral compression algorithm  1   Integral accuracy      1.0D-11

     331.350 MB (compressed) written to integral file ( 53.4%)


 NUMBER OF SORTED TWO-ELECTRON INTEGRALS:   64554730.     BUFFER LENGTH:  32768
 NUMBER OF SEGMENTS:   5  SEGMENT LENGTH:   15997996      RECORD LENGTH: 524288

 Memory used in sort:      16.56 MW

 SORT1 READ    77497885. AND WROTE    63543333. INTEGRALS IN    184 RECORDS. CPU TIME:     0.62 SEC, REAL TIME:     0.88 SEC
 SORT2 READ    63543333. AND WROTE    64554730. INTEGRALS IN   1264 RECORDS. CPU TIME:     0.69 SEC, REAL TIME:     0.90 SEC

 FILE SIZES:   FILE 1:   362.2 MBYTE,  FILE 4:   771.8 MBYTE,   TOTAL:   1134.0 MBYTE

 OPERATOR DM      FOR CENTER  0  COORDINATES:    0.000000    0.000000    0.000000


 **********************************************************************************************************************************
 DATASETS  * FILE   NREC   LENGTH (MB)   RECORD NAMES
              1      19      297.18       500      610      700      900      950      970     1000      129      960     1100   
                                          VAR    BASINP    GEOM    SYMINP    ZMAT    AOBASIS   BASIS     P2S    ABASIS      S 
                                         1400     1410     1200     1210     1080     1600     1650     1300     1700   
                                           T        V       H0       H01     AOSYM     SMH    MOLCAS    ERIS     OPER   

 PROGRAMS   *        TOTAL       INT
 CPU TIMES  *        11.81     11.71
 REAL TIME  *         5.18 SEC
 DISK USED  *         1.06 GB
 **********************************************************************************************************************************


 Program * Restricted Hartree-Fock

 Orbital guess generated from atomic densities. Full valence occupancy:   11   3

 Initial occupancy:   7   2

 NELEC=   18   SYM=1   MS2= 0   THRE=1.0D-08   THRD=3.2D-06   THRG=3.2D-06  HFMA2=F  DIIS_START=2   DIIS_MAX=10   DIIS_INCORE=F

 Level shifts:    0.00 (CLOSED)    0.00 (OPEN)    0.30 (GAP_MIN)

 ITER           ETOT              DE          GRAD        DDIFF     DIIS  NEXP   TIME(IT)  TIME(TOT)  DIAG
   1     -115.06149554    -115.06149554     0.00D+00     0.66D-01     0     0       1.21      2.33    start
   2     -115.08979165      -0.02829611     0.67D-02     0.65D-02     1     0       1.17      3.50    diag
   3     -115.09733215      -0.00754050     0.37D-02     0.22D-02     2     0       1.27      4.77    diag
   4     -115.09786395      -0.00053180     0.72D-03     0.59D-03     3     0       1.15      5.92    diag
   5     -115.09789818      -0.00003423     0.14D-03     0.17D-03     4     0       1.32      7.24    diag
   6     -115.09789972      -0.00000154     0.27D-04     0.48D-04     5     0       1.17      8.41    diag
   7     -115.09789979      -0.00000007     0.56D-05     0.12D-04     6     0       1.32      9.73    diag
   8     -115.09789979      -0.00000000     0.14D-05     0.23D-05     7     0       1.26     10.99    fixocc
   9     -115.09789979      -0.00000000     0.44D-06     0.47D-06     0     0       1.31     12.30    diag

 Final occupancy:   7   2

 !RHF STATE 1.1 Energy               -115.097899790519
  RHF One-electron energy            -236.586709352155
  RHF Two-electron energy              81.325076552916
  RHF Kinetic energy                  114.949350490411
  RHF Nuclear energy                   40.163733008720
  RHF Virial quotient                  -1.001292302214

 !RHF STATE 1.1 Dipole moment           0.00000000     0.59375911    -0.41482539
 Dipole moment /Debye                   0.00000000     1.50918511    -1.05438097

 Orbital energies:

           1.1          2.1          3.1          4.1          5.1          6.1          7.1          8.1          9.1
    -20.556421   -11.272268    -1.354281    -0.926074    -0.688339    -0.595878    -0.504106     0.054451     0.064759

           1.2          2.2          3.2          4.2
     -0.619223    -0.451648     0.074009     0.181533


 HOMO      2.2    -0.451648 =     -12.2900eV
 LUMO      8.1     0.054451 =       1.4817eV
 LUMO-HOMO         0.506099 =      13.7717eV

 Orbitals saved in record  2100.2


 **********************************************************************************************************************************
 DATASETS  * FILE   NREC   LENGTH (MB)   RECORD NAMES
              1      19      297.18       500      610      700      900      950      970     1000      129      960     1100   
                                          VAR    BASINP    GEOM    SYMINP    ZMAT    AOBASIS   BASIS     P2S    ABASIS      S 
                                         1400     1410     1200     1210     1080     1600     1650     1300     1700   
                                           T        V       H0       H01     AOSYM     SMH    MOLCAS    ERIS     OPER   

              2       4        0.70       700     1000      520     2100   
                                         GEOM     BASIS   MCVARS     RHF  

 PROGRAMS   *        TOTAL    HF-SCF       INT
 CPU TIMES  *        24.14     12.33     11.71
 REAL TIME  *         8.96 SEC
 DISK USED  *         1.06 GB
 **********************************************************************************************************************************


 PROGRAM * CCSD (Closed-shell coupled cluster)     Authors: C. Hampel, H.-J. Werner, 1991, M. Deegan, P.J. Knowles, 1992

                                  CCSD-F12 implementation by  H.-J. Werner, 2007

                   Density fitting integral evaluation by F.R. Manby, 2003,2007, G. Knizia, 2010


 Basis set VTZ-F12/JKFIT generated.      Number of basis functions:   392 
 Basis set CC-PVTZ-F12/OPTRI generated.  Number of basis functions:   314 
 Basis set CC-PVTZ-F12/MP2FIT generated. Number of basis functions:   396 

 Convergence thresholds:  THRVAR = 1.00D-08  THRDEN = 1.00D-06

 CCSD(T)     terms to be evaluated (factor= 1.000)


 Number of core orbitals:           2 (   2   0 )
 Number of closed-shell orbitals:   7 (   5   2 )
 Number of external orbitals:     169 ( 107  62 )

 Molecular orbitals read from record     2100.2  Type=RHF/CANONICAL  

 MP2-F12 correlation treatment (H.-J. Werner, 2006)
 ==================================================

 Using MP2-F12 with ansatz 3C(FIX)

 Using projected zeroth-order Hamiltonian (+Z)

 FOCKRIB=T FOCKRIC=T FOCKRIP=T CABSP=T CABSA=T CABSK=T CABSF=T GBC=F EBC=F DMAT=T NOFIK=T NOPAO=1 SOLVE=-1  USEPAO=0
 EXCH_A= T EXCH_B= F EXCH_C= F EXCH_P= F

 Geminal basis:    OPTFULL  GEM_TYPE=SLATER  BETA=1.0  NGEM=6

 Optimizing Gaussian exponents for each gem_beta

 Geminal optimization for beta= 1.0000
 Weight function:   m=0, omega= 1.4646

 Augmented Hessian optimization of geminal fit. Trust ratio= 0.40000
 Convergence reached after   2 iterations. Final gradient= 8.66D-16, Step= 4.23D-06, Delta= 1.28D-09

 Alpha:                 0.19532     0.81920     2.85917     9.50073    35.69989   197.79328
 Coeff:                 0.27070     0.30552     0.18297     0.10986     0.06810     0.04224


 Symmetry turned off. Reference energy:       -115.097899790519

 All pairs explicitly correlated. Number of r12-pairs:           28

 Excluding core orbitals from MO domains

 AO(A)-basis ORBITAL           loaded. Number of functions:     178
 RI(R)-basis CC-PVTZ-F12/OPTRI loaded. Number of functions:     314
 DF-basis VTZ-F12/JKFIT        loaded. Number of functions:     392

 Screening thresholds:   THRAO=  1.00D-10  THRMO=  1.00D-09  THRPROD=  1.00D-09
                         THRSW=  1.00D-05  THROV=  1.00D-12  THRAOF12= 1.00D-08

 CPU time for Fock operators                      6.28 sec

 Construction of ABS:
 Smallest eigenvalue of S          4.21E-04  (threshold= 1.00E-08)
 Ratio eigmin/eigmax               5.39E-05  (threshold= 1.00E-09)
 Smallest eigenvalue of S kept     4.21E-04  (threshold= 4.21E-04, 0 functions deleted, 314 kept)

 Construction of CABS:
 Smallest eigenvalue of S          7.45E-07  (threshold= 1.00E-08)
 Ratio eigmin/eigmax               7.45E-07  (threshold= 1.00E-09)
 Smallest eigenvalue of S kept     7.45E-07  (threshold= 7.45E-07, 0 functions deleted, 314 kept)

 CPU time for CABS singles                        0.13 sec

 CABS-singles contribution of  -0.00134874 patched into reference energy.
 New reference energy        -115.09924853

 AO(A)-basis ORBITAL           loaded. Number of functions:     178
 RI(R)-basis CC-PVTZ-F12/OPTRI loaded. Number of functions:     314
 DF-basis CC-PVTZ-F12/MP2FIT   loaded. Number of functions:     396

 Screening thresholds:   THRAO=  1.00D-10  THRMO=  1.00D-09  THRPROD=  1.00D-09
                         THRSW=  1.00D-05  THROV=  1.00D-12  THRAOF12= 1.00D-08

 CPU time for 3-index integral evaluation         4.70 sec
 CPU time for first  half transformation          0.55 sec ( 4489.2 MFLOP/sec)
 CPU time for second half transformation          0.01 sec ( 6217.0 MFLOP/sec)
 CPU time for sorting                             0.01 sec
 CPU time for fitting                             0.13 sec ( 8764.8 MFLOP/sec)
 CPU time for tilde quantities                    0.13 sec (11618.9 MFLOP/sec)
 CPU time for assembly                            0.69 sec (17903.8 MFLOP/sec)
 CPU time for tranop_f12                          1.60 sec ( 9912.6 MFLOP/sec)
 CPU time for f12 integrals (total)              11.26 sec, Elapsed time:      5.83 sec
 CPU time for f12 matrices (total)                0.52 sec, Elapsed time:      0.07 sec

 Diagonal F12 approximation with fixed coefficients:  TSING= 0.500,  TTRIP= 0.250 (scaled by -1/beta)

 DF-MP2-F12 energy corrections:
 ==============================
 Approx.                                    Singlet             Triplet             Total
 DF-MP2-F12/3*C(DX,FIX)                -0.038249404196     -0.004202053540     -0.042451457736
 DF-MP2-F12/3*C(FIX)                   -0.036062532460     -0.003922680281     -0.039985212741
 DF-MP2-F12/3C(FIX)                    -0.036006405084     -0.004057602259     -0.040064007343

 DF-MP2-F12 correlation energies:
 ================================
 Approx.                                    Singlet             Triplet             Ecorr            Total Energy
 DF-MP2                                -0.291287324473     -0.152326752575     -0.443614077048   -115.542862602865
 DF-MP2-F12/3*C(DX,FIX)                -0.329536728669     -0.156528806115     -0.486065534784   -115.585314060601
 DF-MP2-F12/3*C(FIX)                   -0.327349856933     -0.156249432856     -0.483599289789   -115.582847815605
 DF-MP2-F12/3C(FIX)                    -0.327293729557     -0.156384354834     -0.483678084391   -115.582926610208

 SCS-DF-MP2 energies (F_SING= 1.20000  F_TRIP= 0.62222  F_PARALLEL= 0.33333):
 ============================================================================
 SCS-DF-MP2                            -0.444325879859   -115.543574405675
 SCS-DF-MP2-F12/3*C(DX,FIX)            -0.492839775986   -115.592088301802
 SCS-DF-MP2-F12/3*C(FIX)               -0.490041697652   -115.589290223468
 SCS-DF-MP2-F12/3C(FIX)                -0.490058296255   -115.589306822071

 Symmetry restored.
 Symmetry transformation completed.

 Number of N-1 electron functions:               7
 Number of N-2 electron functions:              28
 Number of singly external CSFs:               659
 Number of doubly external CSFs:            355020
 Total number of CSFs:                      355680

 Length of J-op  integral file:             103.62 MB
 Length of K-op  integral file:             127.95 MB
 Length of 3-ext integral record:             0.00 MB

 Memory could be reduced to 24.20 Mwords without degradation in triples

 Integral transformation finished. Total CPU:   7.43 sec, npass=  1  Memory used:   7.45 MW

 Reference energy:                   -115.09924853

 Adding F12 terms to K(Cij), methodcc=6,  factor= 1.0

 ITER.      SQ.NORM     CORR.ENERGY   TOTAL ENERGY   ENERGY CHANGE        DEN1      VAR(S)    VAR(P)  DIIS     TIME  TIME/IT
   1      1.11803987    -0.45304754  -115.55229607    -0.00936664     0.00169337  0.15D-02  0.19D-02  1  1    56.56     2.78
   2      1.12551280    -0.45341511  -115.55266364    -0.00036757    -0.00908909  0.25D-04  0.23D-03  2  2    81.33     2.66
   3      1.12827911    -0.45359557  -115.55284410    -0.00018046    -0.00188097  0.15D-04  0.14D-04  3  3   111.29     2.74
   4      1.12924312    -0.45361359  -115.55286212    -0.00001802    -0.00060806  0.89D-06  0.12D-05  4  4   135.88     2.69
   5      1.12940256    -0.45361530  -115.55286382    -0.00000170    -0.00003888  0.24D-06  0.11D-06  5  5   162.95     2.70
   6      1.12944647    -0.45361291  -115.55286144     0.00000238    -0.00000447  0.38D-07  0.10D-07  6  6   188.73     2.69
   7      1.12945798    -0.45361202  -115.55286055     0.00000089    -0.00000308  0.42D-08  0.15D-08  6  1   215.03     2.69
   8      1.12945983    -0.45361209  -115.55286062    -0.00000007     0.00000036  0.71D-09  0.22D-09  6  3   239.30     2.67

 Norm of t1 vector:      0.05028730      S-energy:    -0.00000036      T1 diagnostic:  0.00950341
                                                                       D1 diagnostic:  0.02002253
                                                                       D2 diagnostic:  0.13692147 (internal)

 Adding energy correction from Wij-K(Fij), methodcc=6  factor= 1.0

  CCSD correlation energy              -0.453612093122
  MP2-F12 correction (uncoupled)       -0.038507619939
  C*T doubles correction               -0.001167864993
  f12b correction                       0.007101069753


 Total CPU time for triples:     32.75 sec


 RESULTS
 =======

  Reference energy                   -115.097899790519
  F12 singles correction               -0.001348735298

 F12 singles corrections added to reference energy

  New reference energy               -115.099248525816

  F12a singlet correction              -0.035765198465
  F12a triplet correction              -0.003910286467
  F12a total correction                -0.039675484932

 F12a corrections for ansatz F12/3C(FIX) added to CCSD energy

  CCSD-F12a singlet pair energy        -0.351473529084
  CCSD-F12a triplet pair energy        -0.141813684196
  CCSD-F12a correlation energy         -0.493287578054

  Triples (T) contribution             -0.016076678514
  Total correlation energy             -0.509364256568

  CCSD-F12a total energy             -115.592536103871
  CCSD[T]-F12a energy                -115.609172160558
  CCSD-T-F12a energy                 -115.608365626755
 !CCSD(T)-F12a total energy          -115.608612782385

 F12b corrections for ansatz F12/3C(FIX) added to CCSD(T)-F12a energy

  CCSD-F12b singlet pair energy        -0.344833840304
  CCSD-F12b triplet pair energy        -0.141352303223
  CCSD-F12b correlation energy         -0.486186508301

  Triples (T) contribution             -0.016076678514
  Total correlation energy             -0.502263186815

  CCSD-F12b total energy             -115.585435034118
  CCSD[T]-F12b energy                -115.602071090805
  CCSD-T-F12b energy                 -115.601264557002
 !CCSD(T)-F12b total energy          -115.601511712632

 Timing summary (sec):

 STEP                 CPU(USER)    SYS     CPU(TOT)    WALL
 Transformation          8.46      0.16      8.62      1.20
 CCSD iterations       211.88     14.00    225.88     21.39
 Triples                32.75      0.43     33.18      3.83
 MP2-F12                19.10      0.40     19.50     10.72
 F12b energy            12.42      1.44     13.86      1.49

 Program statistics:

 Available memory in ccsd:               499999657
 Min. memory needed in ccsd:               1149135
 Max. memory used in ccsd:                 1443104
 Max. memory used in cckext:               1888566 ( 9 integral passes)



 **********************************************************************************************************************************
 DATASETS  * FILE   NREC   LENGTH (MB)   RECORD NAMES
              1      20      368.05       500      610      700      900      950      970     1000      129      960     1100   
                                          VAR    BASINP    GEOM    SYMINP    ZMAT    AOBASIS   BASIS     P2S    ABASIS      S 
                                         1400     1410     1200     1210     1080     1600     1650     1300     1700     1380   
                                           T        V       H0       H01     AOSYM     SMH    MOLCAS    ERIS     OPER     JKOP   

              2       6        0.90       700     1000      520     2100     7360     7350   
                                         GEOM     BASIS   MCVARS     RHF    F12ABS    EF12   

 PROGRAMS   *        TOTAL   CCSD(T)    HF-SCF       INT
 CPU TIMES  *       308.80    284.65     12.33     11.71
 REAL TIME  *        47.66 SEC
 DISK USED  *         1.06 GB
 **********************************************************************************************************************************


 Extrapolating  CCSD(T)-F12  energy with  basissets CC-PVTZ-F12 CC-PVQZ-F12

 Running default procedure: HF-SCF000  CCSD(T)-F12

 *** Long output written to logfile /scratch/vol1/asmola/Methanol/MolPro/RunMolPro/CH3OH_Grid_CBS-Extrapolation-2.log ***

 Evaluating energy using basis set CC-PVQZ-F12

 Extrapolating correlation energy using function n^{-X} with X= 3.0

 L=3  E=    -0.50936426  EFIT=    -0.50936426
 L=4  E=    -0.51078988  EFIT=    -0.51078988

 E(CBS)=    -0.51183021  Coefficients:    0.0666

 Extrapolating correlation energy using function n^{-X} with X= 3.0

 L=3  E=    -0.49328758  EFIT=    -0.49328758
 L=4  E=    -0.49364993  EFIT=    -0.49364993

 E(CBS)=    -0.49391436  Coefficients:    0.0169

 BASIS           EREF            ECORRC          ECORR           ETOTC           ETOT
 CC-PVTZ-   -115.09924853     -0.49328758     -0.50936426   -115.59253610   -115.60861278
 CC-PVQZ-   -115.10072345     -0.49364993     -0.51078988   -115.59437339   -115.61151334
 CBS        -115.10072345     -0.49391436     -0.51183021   -115.59463781   -115.61255366



 **********************************************************************************************************************************
 DATASETS  * FILE   NREC   LENGTH (MB)   RECORD NAMES
              1      20     3079.46       500      610      700      900      950      970     1001      129      960     1100   
                                          VAR    BASINP    GEOM    SYMINP    ZMAT    AOBASIS   BASIS     P2S    ABASIS      S 
                                         1400     1410     1200     1210     1080     1600     1650     1300     1700     1380   
                                           T        V       H0       H01     AOSYM     SMH    MOLCAS    ERIS     OPER     JKOP   

              2       8        1.83       700     1000      520     2100     7360     7350     1001     2101   
                                         GEOM     BASIS   MCVARS     RHF    F12ABS    EF12     BASIS     RHF  

 PROGRAMS   *        TOTAL  EXTRAPOL    HF-SCF       INT   CCSD(T)    HF-SCF       INT
 CPU TIMES  *      1753.07   1077.03    186.45    180.78    284.65     12.33     11.71
 REAL TIME  *       262.25 SEC
 DISK USED  *         9.40 GB
 **********************************************************************************************************************************


 BASIS              EHF          ECORR           ETOT
 CC-PVTZ-F12   -115.0992485   -0.50936426   -115.6086128
 CC-PVQZ-F12   -115.1007235   -0.51078988   -115.6115133
 CBS           -115.1007235   -0.51183021   -115.6125537
                                                  

 CCSD(T)-F12/cc-pVTZ-F12:cc-pVQZ-F12 energy=   -115.612553659816

     CCSD(T)-F12          HF-SCF     CCSD(T)-F12          HF-SCF
   -115.60725099   -115.10056745   -115.60151171   -115.09789979
 **********************************************************************************************************************************
 Molpro calculation terminated
