
 Working directory              : /tmp/asmola/molpro.ZsKoGk4IXo/
 Global scratch directory       : /tmp/asmola/molpro.ZsKoGk4IXo/
 Wavefunction directory         : /home/asmola/wfu/
 Main file repository           : /tmp/asmola/molpro.ZsKoGk4IXo/

 id        : uclcc

 Nodes                        nprocs
 vincent.theory.phys.ucl.ac.uk    1
 GA implementation: MPI file
 GA implementation (serial work in mppx): MPI file

 Using customized tuning parameters: mindgm=1; mindgv=20; mindgc=4; mindgr=1; noblas=0; minvec=7
 default implementation of scratch files=df  


 Variables initialized (1015), CPU time= 0.01 sec
 ***,Methanol Ground State Energy with CCSD(T)-F12 and cc-pVQZ-F12
 memory,500,m;
 
 geometry={angstrom
 c
 o , 1, rco
 h , 2, roh, 1, acoh
 h1, 1, rch1, 2, aoch1  3  ahh1
 h2, 1, rch2, 2, aoch2, 3, ahh2
 h3, 1, rch3, 2, aoch3, 3, ahh3
 }
 
                                                ! Specify the initial values of the internal coordinates (in Angstroms and degrees)
 re1= 1.4296
 re2= 0.95887
 re3= 1.092294
 re4= 1.092294
 re5= 1.092294
 ae1= 107.9812
 ae2= 110.6646
 ae3= 110.6646
 ae4= 110.6646
 ahh1=60.00
 ahh2=180.00
 ahh3=300.00
 
 rco= 1.4296
 roh= 0.95887
 rch1= 1.092294
 rch2= 1.092294
 rch3= 1.092294
 acoh= 107.9812
 aoch1= 110.6646
 aoch2= 110.6646
 aoch3= 110.6646
 ahh1=60.00
 ahh2=180.00
 ahh3=300.00
 
                                                                                 ! Use the aug-cc-pVQZ-F12 basis set
 basis=cc-pVQZ-f12
 
 hf
 optg,procedure=runccsd,savexyz=CH3OH_equilibrium_mp2.xyz
 runccsd = {hf;ccsd(t)-f12}
 
 
 Commands initialized (818), CPU time= 0.02 sec, 672 directives.
 Default parameters read. Elapsed time= 3.60 sec

 Checking input...
 Passed
1


                                         ***  PROGRAM SYSTEM MOLPRO  ***
                                       Copyright, TTI GmbH Stuttgart, 2015
                                    Version 2022.1 linked Mar  3 2022 23:20:00


 **********************************************************************************************************************************
 LABEL *   Methanol Ground State Energy with CCSD(T)-F12 and cc-pVQZ-F12                 
  (14 PROC) 64 bit serial version                                                        DATE: 01-Feb-25          TIME: 22:29:40  
 **********************************************************************************************************************************

 SHA1:             31073afc4d8441e10870424e0d77336a33bc4286
 **********************************************************************************************************************************

 Memory per process:       500 MW
 Total memory per node:    500 MW

 GA preallocation disabled
 GA check disabled

 Variable memory set to 500.0 MW

 SETTING RE1            =         1.42960000                                  
 SETTING RE2            =         0.95887000                                  
 SETTING RE3            =         1.09229400                                  
 SETTING RE4            =         1.09229400                                  
 SETTING RE5            =         1.09229400                                  
 SETTING AE1            =       107.98120000                                  
 SETTING AE2            =       110.66460000                                  
 SETTING AE3            =       110.66460000                                  
 SETTING AE4            =       110.66460000                                  
 SETTING AHH1           =        60.00000000                                  
 SETTING AHH2           =       180.00000000                                  
 SETTING AHH3           =       300.00000000                                  
 SETTING RCO            =         1.42960000                                  
 SETTING ROH            =         0.95887000                                  
 SETTING RCH1           =         1.09229400                                  
 SETTING RCH2           =         1.09229400                                  
 SETTING RCH3           =         1.09229400                                  
 SETTING ACOH           =       107.98120000                                  
 SETTING AOCH1          =       110.66460000                                  
 SETTING AOCH2          =       110.66460000                                  
 SETTING AOCH3          =       110.66460000                                  
 SETTING AHH1           =        60.00000000                                  
 SETTING AHH2           =       180.00000000                                  
 SETTING AHH3           =       300.00000000                                  
 SETTING BASIS          =    CC-PVQZ-F12


 Recomputing integrals since basis changed


 Using spherical harmonics

 Library entry C      S cc-pVQZ-F12          selected for orbital group  1
 Library entry C      P cc-pVQZ-F12          selected for orbital group  1
 Library entry C      D cc-pVQZ-F12          selected for orbital group  1
 Library entry C      F cc-pVQZ-F12          selected for orbital group  1
 Library entry C      G cc-pVQZ-F12          selected for orbital group  1
 Library entry O      S cc-pVQZ-F12          selected for orbital group  2
 Library entry O      P cc-pVQZ-F12          selected for orbital group  2
 Library entry O      D cc-pVQZ-F12          selected for orbital group  2
 Library entry O      F cc-pVQZ-F12          selected for orbital group  2
 Library entry O      G cc-pVQZ-F12          selected for orbital group  2
 Library entry H      S cc-pVQZ-F12          selected for orbital group  3
 Library entry H      P cc-pVQZ-F12          selected for orbital group  3
 Library entry H      D cc-pVQZ-F12          selected for orbital group  3
 Library entry H      F cc-pVQZ-F12          selected for orbital group  3


 PROGRAM * SEWARD (Integral evaluation for generally contracted gaussian basis sets)     Author: Roland Lindh, 1990

 Geometry written to block  1 of record 700

 Orientation using atomic masses  
 Molecule type: Asymmetric top
 Symmetry elements: X
 Rotational constants:      23.6333757     24.5065391    128.9114827 GHz  (calculated with average atomic masses)

 Point group  Cs  



 ATOMIC COORDINATES

 NR  ATOM    CHARGE       X              Y              Z

   1  C       6.00    0.000000000    0.021622205   -1.383678043
   2  O       8.00    0.000000000   -0.126383340    1.313817109
   3  H       1.00    0.000000000    1.563882378    1.966773405
   4  H1      1.00    1.672584827    1.025746373   -2.058106820
   5  H3      1.00   -1.672584827    1.025746373   -2.058106820
   6  H2      1.00    0.000000000   -1.866904676   -2.216820134

 Bond lengths in Bohr (Angstrom)

 1-2  2.701552468  1-4  2.064136508  1-5  2.064136508  1-6  2.064136508  2-3  1.812001689
     ( 1.429600000)     ( 1.092294000)     ( 1.092294000)     ( 1.092294000)     ( 0.958870000)

 Bond angles

  1-2-3  107.98120000   2-1-4  110.66460000   2-1-5  110.66460000   2-1-6  110.66460000

  4-1-5  108.25192757   4-1-6  108.25192757   5-1-6  108.25192757

 NUCLEAR CHARGE:                   18
 NUMBER OF PRIMITIVE AOS:         420
 NUMBER OF SYMMETRY AOS:          350
 NUMBER OF CONTRACTIONS:          310   (  190A'  +  120A"  )
 NUMBER OF INNER CORE ORBITALS:     0   (    0A'  +    0A"  )
 NUMBER OF OUTER CORE ORBITALS:     2   (    2A'  +    0A"  )
 NUMBER OF VALENCE ORBITALS:       12   (    9A'  +    3A"  )


 NUCLEAR REPULSION ENERGY   40.16373301


 Eigenvalues of metric

         1 0.138E-04 0.265E-04 0.279E-04 0.482E-04 0.822E-04 0.112E-03 0.135E-03 0.137E-03
         2 0.283E-04 0.135E-03 0.340E-03 0.428E-03 0.579E-03 0.584E-03 0.866E-03 0.134E-02


 Contracted 2-electron integrals neglected if value below      1.0D-12
 AO integral compression algorithm  1   Integral accuracy      1.0D-12

     3133.669 MB (compressed) written to integral file ( 57.9%)


 NUMBER OF SORTED TWO-ELECTRON INTEGRALS:  586185115.     BUFFER LENGTH:  32768
 NUMBER OF SEGMENTS:  19  SEGMENT LENGTH:   31996000      RECORD LENGTH: 524288

 Memory used in sort:      32.55 MW

 SORT1 READ   676773299. AND WROTE   574235320. INTEGRALS IN   1652 RECORDS. CPU TIME:     6.28 SEC, REAL TIME:    13.29 SEC
 SORT2 READ   574235320. AND WROTE   586185115. INTEGRALS IN  11954 RECORDS. CPU TIME:     5.77 SEC, REAL TIME:     7.66 SEC

 FILE SIZES:   FILE 1:  3166.2 MBYTE,  FILE 4:  6929.0 MBYTE,   TOTAL:  10095.3 MBYTE

 OPERATOR DM      FOR CENTER  0  COORDINATES:    0.000000    0.000000    0.000000


 **********************************************************************************************************************************
 DATASETS  * FILE   NREC   LENGTH (MB)   RECORD NAMES
              1      19     2696.03       500      610      700      900      950      970     1000      129      960     1100   
                                          VAR    BASINP    GEOM    SYMINP    ZMAT    AOBASIS   BASIS     P2S    ABASIS      S 
                                         1400     1410     1200     1210     1080     1600     1650     1300     1700   
                                           T        V       H0       H01     AOSYM     SMH    MOLCAS    ERIS     OPER   

 PROGRAMS   *        TOTAL       INT
 CPU TIMES  *       193.71    193.49
 REAL TIME  *        60.97 SEC
 DISK USED  *         9.40 GB
 **********************************************************************************************************************************


 Program * Restricted Hartree-Fock

 Orbital guess generated from atomic densities. Full valence occupancy:   11   3

 Initial occupancy:   7   2

 NELEC=   18   SYM=1   MS2= 0   THRE=1.0D-08   THRD=1.0D-06   THRG=1.0D-06  HFMA2=F  DIIS_START=2   DIIS_MAX=10   DIIS_INCORE=F

 Level shifts:    0.00 (CLOSED)    0.00 (OPEN)    0.30 (GAP_MIN)

 ITER           ETOT              DE          GRAD        DDIFF     DIIS  NEXP   TIME(IT)  TIME(TOT)  DIAG
   1     -115.06401122    -115.06401122     0.00D+00     0.38D-01     0     0      26.28     53.36    start
   2     -115.09237805      -0.02836682     0.51D-02     0.37D-02     1     0      27.45     80.81    diag
   3     -115.09999853      -0.00762048     0.28D-02     0.13D-02     2     0      26.16    106.97    diag
   4     -115.10053143      -0.00053290     0.55D-03     0.35D-03     3     0      26.92    133.89    diag
   5     -115.10056581      -0.00003438     0.11D-03     0.10D-03     4     0      26.86    160.75    diag
   6     -115.10056737      -0.00000156     0.21D-04     0.30D-04     5     0      26.80    187.55    diag
   7     -115.10056745      -0.00000007     0.43D-05     0.78D-05     6     0      25.78    213.33    diag
   8     -115.10056745      -0.00000000     0.11D-05     0.16D-05     7     0      26.11    239.44    fixocc
   9     -115.10056745      -0.00000000     0.35D-06     0.41D-06     8     0      28.62    268.06    diag
  10     -115.10056745      -0.00000000     0.85D-07     0.91D-07     0     0      28.02    296.08    diag/orth

 Final occupancy:   7   2

 !RHF STATE 1.1 Energy               -115.100567452126
  RHF One-electron energy            -236.595938728073
  RHF Two-electron energy              81.331638267227
  RHF Kinetic energy                  114.954245102209
  RHF Nuclear energy                   40.163733008720
  RHF Virial quotient                  -1.001272874697

 !RHF STATE 1.1 Dipole moment           0.00000000     0.59251538    -0.41241712
 Dipole moment /Debye                   0.00000000     1.50602387    -1.04825976

 Orbital energies:

           1.1          2.1          3.1          4.1          5.1          6.1          7.1          8.1          9.1
    -20.555544   -11.272039    -1.353921    -0.925920    -0.688227    -0.595809    -0.504050     0.045571     0.053167

           1.2          2.2          3.2          4.2
     -0.619201    -0.451628     0.059418     0.145811


 HOMO      2.2    -0.451628 =     -12.2894eV
 LUMO      8.1     0.045571 =       1.2400eV
 LUMO-HOMO         0.497199 =      13.5295eV

 Orbitals saved in record  2100.2


 **********************************************************************************************************************************
 DATASETS  * FILE   NREC   LENGTH (MB)   RECORD NAMES
              1      19     2696.03       500      610      700      900      950      970     1000      129      960     1100   
                                          VAR    BASINP    GEOM    SYMINP    ZMAT    AOBASIS   BASIS     P2S    ABASIS      S 
                                         1400     1410     1200     1210     1080     1600     1650     1300     1700   
                                           T        V       H0       H01     AOSYM     SMH    MOLCAS    ERIS     OPER   

              2       4        1.24       700     1000      520     2100   
                                         GEOM     BASIS   MCVARS     RHF  

 PROGRAMS   *        TOTAL    HF-SCF       INT
 CPU TIMES  *       489.84    296.13    193.49
 REAL TIME  *       109.94 SEC
 DISK USED  *         9.40 GB
 **********************************************************************************************************************************


 PROGRAM * OPT (Geometry optimization)     Authors: F. Eckert and H.-J. Werner


 BFGS update of hessian

 Geometry optimization using procedure=RUNCCSD

 Running procedure: RUNCCSD


 Program * Restricted Hartree-Fock

 Molecular orbitals read from record     2100.2  Type=RHF/CANONICAL  

 Initial occupancy:   7   2

 NELEC=   18   SYM=1   MS2= 0   THRE=1.0D-08   THRD=1.0D-06   THRG=1.0D-06  HFMA2=F  DIIS_START=2   DIIS_MAX=10   DIIS_INCORE=F

 Level shifts:    0.00 (CLOSED)    0.00 (OPEN)    0.30 (GAP_MIN)

 ITER           ETOT              DE          GRAD        DDIFF     DIIS  NEXP   TIME(IT)  TIME(TOT)  DIAG
   1     -115.10056745    -115.10056745     0.00D+00     0.39D-01     0     0      26.73     26.74    start
   2     -115.10056745      -0.00000000     0.36D-07     0.35D-07     1     0      28.07     54.81    diag

 Final occupancy:   7   2

 !RHF STATE 1.1 Energy               -115.100567452129
  RHF One-electron energy            -236.595934911714
  RHF Two-electron energy              81.331634450865
  RHF Kinetic energy                  114.954243594406
  RHF Nuclear energy                   40.163733008720
  RHF Virial quotient                  -1.001272887830

 !RHF STATE 1.1 Dipole moment           0.00000000     0.59251493    -0.41241792
 Dipole moment /Debye                   0.00000000     1.50602273    -1.04826180

 Orbital energies:

           1.1          2.1          3.1          4.1          5.1          6.1          7.1          8.1          9.1
    -20.555544   -11.272036    -1.353921    -0.925919    -0.688226    -0.595808    -0.504049     0.045571     0.053167

           1.2          2.2          3.2          4.2
     -0.619201    -0.451628     0.059418     0.145811


 HOMO      2.2    -0.451628 =     -12.2894eV
 LUMO      8.1     0.045571 =       1.2401eV
 LUMO-HOMO         0.497199 =      13.5295eV

 Orbitals saved in record  2101.2


 **********************************************************************************************************************************
 DATASETS  * FILE   NREC   LENGTH (MB)   RECORD NAMES
              1      19     2696.03       500      610      700      900      950      970     1000      129      960     1100   
                                          VAR    BASINP    GEOM    SYMINP    ZMAT    AOBASIS   BASIS     P2S    ABASIS      S 
                                         1400     1410     1200     1210     1080     1600     1650     1300     1700   
                                           T        V       H0       H01     AOSYM     SMH    MOLCAS    ERIS     OPER   

              2       6        2.95       700     1000      520     2100      200     2101   
                                         GEOM     BASIS   MCVARS     RHF    OPTIONS    RHF  

 PROGRAMS   *        TOTAL    HF-SCF    HF-SCF       INT
 CPU TIMES  *       544.69     54.84    296.13    193.49
 REAL TIME  *       117.82 SEC
 DISK USED  *         9.40 GB
 **********************************************************************************************************************************


 PROGRAM * CCSD (Closed-shell coupled cluster)     Authors: C. Hampel, H.-J. Werner, 1991, M. Deegan, P.J. Knowles, 1992

                                  CCSD-F12 implementation by  H.-J. Werner, 2007

                   Density fitting integral evaluation by F.R. Manby, 2003,2007, G. Knizia, 2010


 Basis set VQZ-F12/JKFIT generated.      Number of basis functions:   588 
 Basis set CC-PVQZ-F12/OPTRI generated.  Number of basis functions:   372 
 Basis set CC-PVQZ-F12/MP2FIT generated. Number of basis functions:   656 

 Convergence thresholds:  THRVAR = 1.00D-12  THRDEN = 1.00D-08

 CCSD(T)     terms to be evaluated (factor= 1.000)


 Number of core orbitals:           2 (   2   0 )
 Number of closed-shell orbitals:   7 (   5   2 )
 Number of external orbitals:     301 ( 183 118 )

 Molecular orbitals read from record     2101.2  Type=RHF/CANONICAL  

 MP2-F12 correlation treatment (H.-J. Werner, 2006)
 ==================================================

 Using MP2-F12 with ansatz 3C(FIX)

 Using projected zeroth-order Hamiltonian (+Z)

 FOCKRIB=T FOCKRIC=T FOCKRIP=T CABSP=T CABSA=T CABSK=T CABSF=T GBC=F EBC=F DMAT=T NOFIK=T NOPAO=1 SOLVE=-1  USEPAO=0
 EXCH_A= T EXCH_B= F EXCH_C= F EXCH_P= F

 Geminal basis:    OPTFULL  GEM_TYPE=SLATER  BETA=1.0  NGEM=6

 Optimizing Gaussian exponents for each gem_beta

 Geminal optimization for beta= 1.0000
 Weight function:   m=0, omega= 1.4646

 Augmented Hessian optimization of geminal fit. Trust ratio= 0.40000
 Convergence reached after   2 iterations. Final gradient= 8.66D-16, Step= 4.23D-06, Delta= 1.28D-09

 Alpha:                 0.19532     0.81920     2.85917     9.50073    35.69989   197.79328
 Coeff:                 0.27070     0.30552     0.18297     0.10986     0.06810     0.04224


 Symmetry turned off. Reference energy:       -115.100567452129

 All pairs explicitly correlated. Number of r12-pairs:           28

 Excluding core orbitals from MO domains

 AO(A)-basis ORBITAL           loaded. Number of functions:     310
 RI(R)-basis CC-PVQZ-F12/OPTRI loaded. Number of functions:     372
 DF-basis VQZ-F12/JKFIT        loaded. Number of functions:     588

 Screening thresholds:   THRAO=  1.00D-10  THRMO=  1.00D-10  THRPROD=  1.00D-10
                         THRSW=  1.00D-07  THROV=  1.00D-12  THRAOF12= 1.00D-08

 CPU time for Fock operators                     17.02 sec

 Construction of ABS:
 Smallest eigenvalue of S          2.77E-04  (threshold= 1.00E-08)
 Ratio eigmin/eigmax               4.86E-05  (threshold= 1.00E-09)
 Smallest eigenvalue of S kept     2.77E-04  (threshold= 2.77E-04, 0 functions deleted, 372 kept)

 Construction of CABS:
 Smallest eigenvalue of S          3.24E-08  (threshold= 1.00E-08)
 Ratio eigmin/eigmax               3.24E-08  (threshold= 1.00E-09)
 Smallest eigenvalue of S kept     3.24E-08  (threshold= 3.24E-08, 0 functions deleted, 372 kept)

 CPU time for CABS singles                        0.30 sec

 CABS-singles contribution of  -0.00015600 patched into reference energy.
 New reference energy        -115.10072345

 AO(A)-basis ORBITAL           loaded. Number of functions:     310
 RI(R)-basis CC-PVQZ-F12/OPTRI loaded. Number of functions:     372
 DF-basis CC-PVQZ-F12/MP2FIT   loaded. Number of functions:     656

 Screening thresholds:   THRAO=  1.00D-10  THRMO=  1.00D-10  THRPROD=  1.00D-10
                         THRSW=  1.00D-07  THROV=  1.00D-12  THRAOF12= 1.00D-08

 CPU time for 3-index integral evaluation        24.48 sec
 CPU time for first  half transformation          4.60 sec ( 2264.0 MFLOP/sec)
 CPU time for second half transformation          0.02 sec ( 8968.2 MFLOP/sec)
 CPU time for sorting                             0.04 sec
 CPU time for fitting                             0.32 sec (13348.5 MFLOP/sec)
 CPU time for tilde quantities                    0.45 sec (13522.1 MFLOP/sec)
 CPU time for assembly                            2.32 sec (18488.9 MFLOP/sec)
 CPU time for tranop_f12                          4.34 sec (11121.5 MFLOP/sec)
 CPU time for f12 integrals (total)              44.40 sec, Elapsed time:     16.19 sec
 CPU time for f12 matrices (total)                1.33 sec, Elapsed time:      0.18 sec

 Diagonal F12 approximation with fixed coefficients:  TSING= 0.500,  TTRIP= 0.250 (scaled by -1/beta)

 DF-MP2-F12 energy corrections:
 ==============================
 Approx.                                    Singlet             Triplet             Total
 DF-MP2-F12/3*C(DX,FIX)                -0.019752317943     -0.001386011646     -0.021138329589
 DF-MP2-F12/3*C(FIX)                   -0.018964430588     -0.001274486103     -0.020238916691
 DF-MP2-F12/3C(FIX)                    -0.018885888769     -0.001294685486     -0.020180574255

 DF-MP2-F12 correlation energies:
 ================================
 Approx.                                    Singlet             Triplet             Ecorr            Total Energy
 DF-MP2                                -0.309406860398     -0.155296898755     -0.464703759153   -115.565427211082
 DF-MP2-F12/3*C(DX,FIX)                -0.329159178341     -0.156682910401     -0.485842088742   -115.586565540670
 DF-MP2-F12/3*C(FIX)                   -0.328371290986     -0.156571384858     -0.484942675844   -115.585666127773
 DF-MP2-F12/3C(FIX)                    -0.328292749167     -0.156591584242     -0.484884333409   -115.585607785337

 SCS-DF-MP2 energies (F_SING= 1.20000  F_TRIP= 0.62222  F_PARALLEL= 0.33333):
 ============================================================================
 SCS-DF-MP2                            -0.467917413925   -115.568640865854
 SCS-DF-MP2-F12/3*C(DX,FIX)            -0.492482602703   -115.593206054632
 SCS-DF-MP2-F12/3*C(FIX)               -0.491467744206   -115.592191196134
 SCS-DF-MP2-F12/3C(FIX)                -0.491386062528   -115.592109514457

 Symmetry restored.
 Symmetry transformation completed.

 Number of N-1 electron functions:               7
 Number of N-2 electron functions:              28
 Number of singly external CSFs:              1151
 Number of doubly external CSFs:           1120422
 Total number of CSFs:                     1121574

 Length of J-op  integral file:             229.00 MB
 Length of K-op  integral file:             306.42 MB
 Length of 3-ext integral record:             0.00 MB

 Memory could be reduced to 133.39 Mwords without degradation in triples

 Integral transformation finished. Total CPU:  96.41 sec, npass=  1  Memory used:  39.75 MW

 Reference energy:                   -115.10072345

 Adding F12 terms to K(Cij), methodcc=6,  factor= 1.0

 ITER.      SQ.NORM     CORR.ENERGY   TOTAL ENERGY   ENERGY CHANGE        DEN1      VAR(S)    VAR(P)  DIIS     TIME  TIME/IT
   1      1.11938893    -0.47252446  -115.57324791    -0.00774644     0.00334500  0.15D-02  0.19D-02  1  1   266.78    10.91
   2      1.12698116    -0.47332154  -115.57404499    -0.00079708    -0.00939855  0.26D-04  0.24D-03  2  2   381.31    10.85
   3      1.12995608    -0.47344864  -115.57417209    -0.00012710    -0.00208495  0.13D-04  0.13D-04  3  3   488.17    10.62
   4      1.13082967    -0.47344965  -115.57417310    -0.00000101    -0.00047531  0.91D-06  0.12D-05  4  4   595.49    10.82
   5      1.13099314    -0.47345247  -115.57417593    -0.00000283    -0.00004680  0.25D-06  0.11D-06  5  5   714.88    11.38
   6      1.13104094    -0.47344971  -115.57417316     0.00000276    -0.00000780  0.40D-07  0.11D-07  6  6   835.48    12.84
   7      1.13105211    -0.47344878  -115.57417223     0.00000093    -0.00000204  0.53D-08  0.20D-08  6  2   957.25    13.83
   8      1.13105503    -0.47344857  -115.57417203     0.00000020    -0.00000026  0.83D-09  0.26D-09  6  1  1062.50    13.88
   9      1.13105628    -0.47344851  -115.57417196     0.00000007    -0.00000010  0.84D-10  0.34D-10  6  3  1158.18    13.36
  10      1.13105640    -0.47344853  -115.57417198    -0.00000002     0.00000010  0.10D-10  0.41D-11  6  4  1253.59    12.94
  11      1.13105628    -0.47344854  -115.57417199    -0.00000002     0.00000013  0.14D-11  0.63D-12  6  5  1347.52    12.59
  12      1.13105620    -0.47344855  -115.57417200    -0.00000000     0.00000003  0.20D-12  0.83D-13  6  2  1443.13    12.30
  13      1.13105616    -0.47344855  -115.57417200    -0.00000000     0.00000002  0.21D-13  0.79D-14  6  6  1538.01    12.06

 Norm of t1 vector:      0.05038184      S-energy:    -0.00000000      T1 diagnostic:  0.00952127
                                                                       D1 diagnostic:  0.02024989
                                                                       D2 diagnostic:  0.13772432 (internal)

 Adding energy correction from Wij-K(Fij), methodcc=6  factor= 1.0

  CCSD correlation energy              -0.473448547962
  MP2-F12 correction (uncoupled)       -0.019965712822
  C*T doubles correction               -0.000235655827
  f12b correction                       0.004262345547


 Total CPU time for triples:    184.14 sec


 RESULTS
 =======

  Reference energy                   -115.100567452129
  F12 singles correction               -0.000155999799

 F12 singles corrections added to reference energy

  New reference energy               -115.100723451928

  F12a singlet correction              -0.018918756509
  F12a triplet correction              -0.001282612140
  F12a total correction                -0.020201368649

 F12a corrections for ansatz F12/3C(FIX) added to CCSD energy

  CCSD-F12a singlet pair energy        -0.351732108711
  CCSD-F12a triplet pair energy        -0.141917804398
  CCSD-F12a correlation energy         -0.493649916611

  Triples (T) contribution             -0.017139995204
  Total correlation energy             -0.510789911815

  CCSD-F12a total energy             -115.594373368539
  CCSD[T]-F12a energy                -115.612076736946
  CCSD-T-F12a energy                 -115.611265784943
 !CCSD(T)-F12a total energy          -115.611513363743

 F12b corrections for ansatz F12/3C(FIX) added to CCSD(T)-F12a energy

  CCSD-F12b singlet pair energy        -0.347655236917
  CCSD-F12b triplet pair energy        -0.141732330645
  CCSD-F12b correlation energy         -0.489387571064

  Triples (T) contribution             -0.017139995204
  Total correlation energy             -0.506527566268

  CCSD-F12b total energy             -115.590111022992
  CCSD[T]-F12b energy                -115.607814391398
  CCSD-T-F12b energy                 -115.607003439396
 !CCSD(T)-F12b total energy          -115.607251018196

 Timing summary (sec):

 STEP                 CPU(USER)    SYS     CPU(TOT)    WALL
 Transformation        100.12      1.75    101.87     15.85
 CCSD iterations      1374.57     62.65   1437.22    157.00
 Triples               184.14      1.96    186.10     28.69
 MP2-F12                63.94      0.99     64.93     29.66
 F12b energy            83.14      3.27     86.41      7.93

 Program statistics:

 Available memory in ccsd:               499999657
 Min. memory needed in ccsd:               3543551
 Max. memory used in ccsd:                 4486316
 Max. memory used in cckext:               7504336 (14 integral passes)



 **********************************************************************************************************************************
 DATASETS  * FILE   NREC   LENGTH (MB)   RECORD NAMES
              1      20     3079.46       500      610      700      900      950      970     1000      129      960     1100   
                                          VAR    BASINP    GEOM    SYMINP    ZMAT    AOBASIS   BASIS     P2S    ABASIS      S 
                                         1400     1410     1200     1210     1080     1600     1650     1300     1700     1380   
                                           T        V       H0       H01     AOSYM     SMH    MOLCAS    ERIS     OPER     JKOP   

              2       8        3.53       700     1000      520     2100      200     2101     7360     7350   
                                         GEOM     BASIS   MCVARS     RHF    OPTIONS    RHF    F12ABS    EF12   

 PROGRAMS   *        TOTAL   CCSD(T)    HF-SCF       INT
 CPU TIMES  *      2350.64   1805.94    296.13    193.49
 REAL TIME  *       357.08 SEC
 DISK USED  *         9.40 GB
 **********************************************************************************************************************************

 Geometry written to block  1 of record 700

 XYZ inputs for each point on the optimization path will be saved in files ch3oh_equilibrium_mp2_xx.xyz

 *** Long output written to logfile /scratch/vol1/asmola/Methanol/MolPro/RunMolPro/CH3OH_OPTG_CCSD-F12.log ***

 The request for symmetry elements X, cannot be honoured
 ? Error
 ? Symmetry problem
 ? The problem occurs in zmatrix.f:zmat_orient

 GLOBAL ERROR fehler on processor   0                                         
