
 Working directory              : /tmp/asmola/molpro.CEwpTZTZYy/
 Global scratch directory       : /tmp/asmola/molpro.CEwpTZTZYy/
 Wavefunction directory         : /home/asmola/wfu/
 Main file repository           : /tmp/asmola/molpro.CEwpTZTZYy/

 id        : uclcc

 Nodes                        nprocs
 vincent.theory.phys.ucl.ac.uk    1
 GA implementation: MPI file
 GA implementation (serial work in mppx): MPI file

 Using customized tuning parameters: mindgm=1; mindgv=20; mindgc=4; mindgr=1; noblas=0; minvec=7
 default implementation of scratch files=df  


 Variables initialized (1015), CPU time= 0.00 sec
 ***,Methanol Ground State Energy with extrapolating to the CBS limit using CCSD(T)-F
 memory,500,m;
 
 geometry={angstrom
 c
 o , 1, rco
 h , 2, roh, 1, acoh
 h1, 1, rch1, 2, aoch1  3  ahh1
 h2, 1, rch2, 2, aoch2, 3, ahh2
 h3, 1, rch3, 2, aoch3, 3, ahh3
 }
 
 rco= 1.4296
 roh= 0.95887
 rch1= 1.092294
 rch2= 1.092294
 rch3= 1.092294
 acoh= 107.9812
 aoch1= 110.6646
 aoch2= 110.6646
 aoch3= 110.6646
 ahh1=60.00
 ahh2=180.00
 ahh3=300.00
 
 basis=cc-pVTZ-F12;
 hf;
 {ccsd-f12}
 energy_ccsd_VTZ = energy
 
 basis=cc-pVQZ-F12;
 hf;
 {ccsd-f12}
 energy_ccsd_VQZ = energy
 
 basis=cc-pVTZ;
 hf;
 {ccsd(t)}
 energy_t_VTZ = energy
 
 basis=cc-pVQZ;
 hf;
 {ccsd(t)}
 energy_t_VQZ = energy
 
 E_cbs_ccsd = (energy_ccsd_VQZ - energy_ccsd_VTZ)*1.363388 - energy_ccsd_VTZ
 
 E_cbs_t = (energy_t_VQZ - energy_t_VTZ)*1.769474 - energy_t_VTZ
 
 E_cbs = E_cbs_ccsd + E_cbs_t
 
                                                                                 ! Output the energy
 
 Commands initialized (818), CPU time= 0.01 sec, 672 directives.
 Default parameters read. Elapsed time= 0.05 sec

 Checking input...
 Passed
1


                                         ***  PROGRAM SYSTEM MOLPRO  ***
                                       Copyright, TTI GmbH Stuttgart, 2015
                                    Version 2022.1 linked Mar  3 2022 23:20:00


 **********************************************************************************************************************************
 LABEL *   Methanol Ground State Energy with extrapolating to the CBS limit using        
  (14 PROC) 64 bit serial version                                                        DATE: 26-Jan-25          TIME: 00:04:18  
 **********************************************************************************************************************************

 SHA1:             31073afc4d8441e10870424e0d77336a33bc4286
 **********************************************************************************************************************************

 Memory per process:       500 MW
 Total memory per node:    500 MW

 GA preallocation disabled
 GA check disabled

 Variable memory set to 500.0 MW

 SETTING RCO            =         1.42960000                                  
 SETTING ROH            =         0.95887000                                  
 SETTING RCH1           =         1.09229400                                  
 SETTING RCH2           =         1.09229400                                  
 SETTING RCH3           =         1.09229400                                  
 SETTING ACOH           =       107.98120000                                  
 SETTING AOCH1          =       110.66460000                                  
 SETTING AOCH2          =       110.66460000                                  
 SETTING AOCH3          =       110.66460000                                  
 SETTING AHH1           =        60.00000000                                  
 SETTING AHH2           =       180.00000000                                  
 SETTING AHH3           =       300.00000000                                  
 SETTING BASIS          =    CC-PVTZ-F12


 Recomputing integrals since basis changed


 Using spherical harmonics

 Library entry C      S cc-pVTZ-F12          selected for orbital group  1
 Library entry C      P cc-pVTZ-F12          selected for orbital group  1
 Library entry C      D cc-pVTZ-F12          selected for orbital group  1
 Library entry C      F cc-pVTZ-F12          selected for orbital group  1
 Library entry O      S cc-pVTZ-F12          selected for orbital group  2
 Library entry O      P cc-pVTZ-F12          selected for orbital group  2
 Library entry O      D cc-pVTZ-F12          selected for orbital group  2
 Library entry O      F cc-pVTZ-F12          selected for orbital group  2
 Library entry H      S cc-pVTZ-F12          selected for orbital group  3
 Library entry H      P cc-pVTZ-F12          selected for orbital group  3
 Library entry H      D cc-pVTZ-F12          selected for orbital group  3


 PROGRAM * SEWARD (Integral evaluation for generally contracted gaussian basis sets)     Author: Roland Lindh, 1990

 Geometry written to block  1 of record 700

 Orientation using atomic masses  
 Molecule type: Asymmetric top
 Symmetry elements: X
 Rotational constants:      23.6333757     24.5065391    128.9114827 GHz  (calculated with average atomic masses)

 Point group  Cs  



 ATOMIC COORDINATES

 NR  ATOM    CHARGE       X              Y              Z

   1  C       6.00    0.000000000    0.021622205   -1.383678043
   2  O       8.00    0.000000000   -0.126383340    1.313817109
   3  H       1.00    0.000000000    1.563882378    1.966773405
   4  H1      1.00    1.672584827    1.025746373   -2.058106820
   5  H3      1.00   -1.672584827    1.025746373   -2.058106820
   6  H2      1.00    0.000000000   -1.866904676   -2.216820134

 Bond lengths in Bohr (Angstrom)

 1-2  2.701552468  1-4  2.064136508  1-5  2.064136508  1-6  2.064136508  2-3  1.812001689
     ( 1.429600000)     ( 1.092294000)     ( 1.092294000)     ( 1.092294000)     ( 0.958870000)

 Bond angles

  1-2-3  107.98120000   2-1-4  110.66460000   2-1-5  110.66460000   2-1-6  110.66460000

  4-1-5  108.25192757   4-1-6  108.25192757   5-1-6  108.25192757

 NUCLEAR CHARGE:                   18
 NUMBER OF PRIMITIVE AOS:         228
 NUMBER OF SYMMETRY AOS:          206
 NUMBER OF CONTRACTIONS:          178   (  114A'  +   64A"  )
 NUMBER OF INNER CORE ORBITALS:     0   (    0A'  +    0A"  )
 NUMBER OF OUTER CORE ORBITALS:     2   (    2A'  +    0A"  )
 NUMBER OF VALENCE ORBITALS:       12   (    9A'  +    3A"  )


 NUCLEAR REPULSION ENERGY   40.16373301

 Eigenvalues of metric

         1 0.891E-04 0.188E-03 0.310E-03 0.462E-03 0.495E-03 0.562E-03 0.621E-03 0.624E-03
         2 0.327E-03 0.571E-03 0.687E-03 0.180E-02 0.355E-02 0.488E-02 0.647E-02 0.854E-02


 Contracted 2-electron integrals neglected if value below      1.0D-11
 AO integral compression algorithm  1   Integral accuracy      1.0D-11

     331.350 MB (compressed) written to integral file ( 53.4%)


 NUMBER OF SORTED TWO-ELECTRON INTEGRALS:   64554730.     BUFFER LENGTH:  32768
 NUMBER OF SEGMENTS:   5  SEGMENT LENGTH:   15997996      RECORD LENGTH: 524288

 Memory used in sort:      16.56 MW

 SORT1 READ    77497885. AND WROTE    63543333. INTEGRALS IN    184 RECORDS. CPU TIME:     0.62 SEC, REAL TIME:     0.88 SEC
 SORT2 READ    63543333. AND WROTE    64554730. INTEGRALS IN   1264 RECORDS. CPU TIME:     0.70 SEC, REAL TIME:     0.90 SEC

 FILE SIZES:   FILE 1:   362.2 MBYTE,  FILE 4:   771.8 MBYTE,   TOTAL:   1134.0 MBYTE

 OPERATOR DM      FOR CENTER  0  COORDINATES:    0.000000    0.000000    0.000000


 **********************************************************************************************************************************
 DATASETS  * FILE   NREC   LENGTH (MB)   RECORD NAMES
              1      19      297.18       500      610      700      900      950      970     1000      129      960     1100   
                                          VAR    BASINP    GEOM    SYMINP    ZMAT    AOBASIS   BASIS     P2S    ABASIS      S 
                                         1400     1410     1200     1210     1080     1600     1650     1300     1700   
                                           T        V       H0       H01     AOSYM     SMH    MOLCAS    ERIS     OPER   

 PROGRAMS   *        TOTAL       INT
 CPU TIMES  *        11.86     11.75
 REAL TIME  *         5.22 SEC
 DISK USED  *         1.06 GB
 **********************************************************************************************************************************


 Program * Restricted Hartree-Fock

 Orbital guess generated from atomic densities. Full valence occupancy:   11   3

 Initial occupancy:   7   2

 NELEC=   18   SYM=1   MS2= 0   THRE=1.0D-08   THRD=3.2D-06   THRG=3.2D-06  HFMA2=F  DIIS_START=2   DIIS_MAX=10   DIIS_INCORE=F

 Level shifts:    0.00 (CLOSED)    0.00 (OPEN)    0.30 (GAP_MIN)

 ITER           ETOT              DE          GRAD        DDIFF     DIIS  NEXP   TIME(IT)  TIME(TOT)  DIAG
   1     -115.06149554    -115.06149554     0.00D+00     0.66D-01     0     0       1.19      2.30    start
   2     -115.08979165      -0.02829611     0.67D-02     0.65D-02     1     0       1.18      3.48    diag
   3     -115.09733215      -0.00754050     0.37D-02     0.22D-02     2     0       1.33      4.81    diag
   4     -115.09786395      -0.00053180     0.72D-03     0.59D-03     3     0       1.16      5.97    diag
   5     -115.09789818      -0.00003423     0.14D-03     0.17D-03     4     0       1.32      7.29    diag
   6     -115.09789972      -0.00000154     0.27D-04     0.48D-04     5     0       1.15      8.44    diag
   7     -115.09789979      -0.00000007     0.56D-05     0.12D-04     6     0       1.30      9.74    diag
   8     -115.09789979      -0.00000000     0.14D-05     0.23D-05     7     0       1.16     10.90    fixocc
   9     -115.09789979      -0.00000000     0.44D-06     0.47D-06     0     0       1.17     12.07    diag

 Final occupancy:   7   2

 !RHF STATE 1.1 Energy               -115.097899790519
  RHF One-electron energy            -236.586709352155
  RHF Two-electron energy              81.325076552916
  RHF Kinetic energy                  114.949350490411
  RHF Nuclear energy                   40.163733008720
  RHF Virial quotient                  -1.001292302214

 !RHF STATE 1.1 Dipole moment           0.00000000     0.59375911    -0.41482539
 Dipole moment /Debye                   0.00000000     1.50918511    -1.05438097

 Orbital energies:

           1.1          2.1          3.1          4.1          5.1          6.1          7.1          8.1          9.1
    -20.556421   -11.272268    -1.354281    -0.926074    -0.688339    -0.595878    -0.504106     0.054451     0.064759

           1.2          2.2          3.2          4.2
     -0.619223    -0.451648     0.074009     0.181533


 HOMO      2.2    -0.451648 =     -12.2900eV
 LUMO      8.1     0.054451 =       1.4817eV
 LUMO-HOMO         0.506099 =      13.7717eV

 Orbitals saved in record  2100.2


 **********************************************************************************************************************************
 DATASETS  * FILE   NREC   LENGTH (MB)   RECORD NAMES
              1      19      297.18       500      610      700      900      950      970     1000      129      960     1100   
                                          VAR    BASINP    GEOM    SYMINP    ZMAT    AOBASIS   BASIS     P2S    ABASIS      S 
                                         1400     1410     1200     1210     1080     1600     1650     1300     1700   
                                           T        V       H0       H01     AOSYM     SMH    MOLCAS    ERIS     OPER   

              2       4        0.70       700     1000      520     2100   
                                         GEOM     BASIS   MCVARS     RHF  

 PROGRAMS   *        TOTAL    HF-SCF       INT
 CPU TIMES  *        23.95     12.08     11.75
 REAL TIME  *         8.95 SEC
 DISK USED  *         1.06 GB
 **********************************************************************************************************************************


 PROGRAM * CCSD (Closed-shell coupled cluster)     Authors: C. Hampel, H.-J. Werner, 1991, M. Deegan, P.J. Knowles, 1992

                                  CCSD-F12 implementation by  H.-J. Werner, 2007

                   Density fitting integral evaluation by F.R. Manby, 2003,2007, G. Knizia, 2010


 Basis set VTZ-F12/JKFIT generated.      Number of basis functions:   392 
 Basis set CC-PVTZ-F12/OPTRI generated.  Number of basis functions:   314 
 Basis set CC-PVTZ-F12/MP2FIT generated. Number of basis functions:   396 

 Convergence thresholds:  THRVAR = 1.00D-08  THRDEN = 1.00D-06

 Number of core orbitals:           2 (   2   0 )
 Number of closed-shell orbitals:   7 (   5   2 )
 Number of external orbitals:     169 ( 107  62 )

 Molecular orbitals read from record     2100.2  Type=RHF/CANONICAL  

 MP2-F12 correlation treatment (H.-J. Werner, 2006)
 ==================================================

 Using MP2-F12 with ansatz 3C(FIX)

 Using projected zeroth-order Hamiltonian (+Z)

 FOCKRIB=T FOCKRIC=T FOCKRIP=T CABSP=T CABSA=T CABSK=T CABSF=T GBC=F EBC=F DMAT=T NOFIK=T NOPAO=1 SOLVE=-1  USEPAO=0
 EXCH_A= T EXCH_B= F EXCH_C= F EXCH_P= F

 Geminal basis:    OPTFULL  GEM_TYPE=SLATER  BETA=1.0  NGEM=6

 Optimizing Gaussian exponents for each gem_beta

 Geminal optimization for beta= 1.0000
 Weight function:   m=0, omega= 1.4646

 Augmented Hessian optimization of geminal fit. Trust ratio= 0.40000
 Convergence reached after   2 iterations. Final gradient= 8.66D-16, Step= 4.23D-06, Delta= 1.28D-09

 Alpha:                 0.19532     0.81920     2.85917     9.50073    35.69989   197.79328
 Coeff:                 0.27070     0.30552     0.18297     0.10986     0.06810     0.04224


 Symmetry turned off. Reference energy:       -115.097899790519

 All pairs explicitly correlated. Number of r12-pairs:           28

 Excluding core orbitals from MO domains

 AO(A)-basis ORBITAL           loaded. Number of functions:     178
 RI(R)-basis CC-PVTZ-F12/OPTRI loaded. Number of functions:     314
 DF-basis VTZ-F12/JKFIT        loaded. Number of functions:     392

 Screening thresholds:   THRAO=  1.00D-10  THRMO=  1.00D-09  THRPROD=  1.00D-09
                         THRSW=  1.00D-05  THROV=  1.00D-12  THRAOF12= 1.00D-08

 CPU time for Fock operators                      6.24 sec

 Construction of ABS:
 Smallest eigenvalue of S          4.21E-04  (threshold= 1.00E-08)
 Ratio eigmin/eigmax               5.39E-05  (threshold= 1.00E-09)
 Smallest eigenvalue of S kept     4.21E-04  (threshold= 4.21E-04, 0 functions deleted, 314 kept)

 Construction of CABS:
 Smallest eigenvalue of S          7.45E-07  (threshold= 1.00E-08)
 Ratio eigmin/eigmax               7.45E-07  (threshold= 1.00E-09)
 Smallest eigenvalue of S kept     7.45E-07  (threshold= 7.45E-07, 0 functions deleted, 314 kept)

 CPU time for CABS singles                        0.10 sec

 CABS-singles contribution of  -0.00134874 patched into reference energy.
 New reference energy        -115.09924853

 AO(A)-basis ORBITAL           loaded. Number of functions:     178
 RI(R)-basis CC-PVTZ-F12/OPTRI loaded. Number of functions:     314
 DF-basis CC-PVTZ-F12/MP2FIT   loaded. Number of functions:     396

 Screening thresholds:   THRAO=  1.00D-10  THRMO=  1.00D-09  THRPROD=  1.00D-09
                         THRSW=  1.00D-05  THROV=  1.00D-12  THRAOF12= 1.00D-08

 CPU time for 3-index integral evaluation         4.81 sec
 CPU time for first  half transformation          0.54 sec ( 4572.3 MFLOP/sec)
 CPU time for second half transformation          0.01 sec ( 6217.0 MFLOP/sec)
 CPU time for sorting                             0.03 sec
 CPU time for fitting                             0.09 sec (12660.3 MFLOP/sec)
 CPU time for tilde quantities                    0.15 sec (10069.7 MFLOP/sec)
 CPU time for assembly                            0.55 sec (22461.1 MFLOP/sec)
 CPU time for tranop_f12                          1.36 sec (11661.9 MFLOP/sec)
 CPU time for f12 integrals (total)              10.74 sec, Elapsed time:      5.75 sec
 CPU time for f12 matrices (total)                0.48 sec, Elapsed time:      0.07 sec

 Diagonal F12 approximation with fixed coefficients:  TSING= 0.500,  TTRIP= 0.250 (scaled by -1/beta)

 DF-MP2-F12 energy corrections:
 ==============================
 Approx.                                    Singlet             Triplet             Total
 DF-MP2-F12/3*C(DX,FIX)                -0.038249404196     -0.004202053540     -0.042451457736
 DF-MP2-F12/3*C(FIX)                   -0.036062532460     -0.003922680281     -0.039985212741
 DF-MP2-F12/3C(FIX)                    -0.036006405084     -0.004057602259     -0.040064007343

 DF-MP2-F12 correlation energies:
 ================================
 Approx.                                    Singlet             Triplet             Ecorr            Total Energy
 DF-MP2                                -0.291287324473     -0.152326752575     -0.443614077048   -115.542862602865
 DF-MP2-F12/3*C(DX,FIX)                -0.329536728669     -0.156528806115     -0.486065534784   -115.585314060601
 DF-MP2-F12/3*C(FIX)                   -0.327349856933     -0.156249432856     -0.483599289789   -115.582847815605
 DF-MP2-F12/3C(FIX)                    -0.327293729557     -0.156384354834     -0.483678084391   -115.582926610208

 SCS-DF-MP2 energies (F_SING= 1.20000  F_TRIP= 0.62222  F_PARALLEL= 0.33333):
 ============================================================================
 SCS-DF-MP2                            -0.444325879859   -115.543574405675
 SCS-DF-MP2-F12/3*C(DX,FIX)            -0.492839775986   -115.592088301802
 SCS-DF-MP2-F12/3*C(FIX)               -0.490041697652   -115.589290223468
 SCS-DF-MP2-F12/3C(FIX)                -0.490058296255   -115.589306822071

 Symmetry restored.
 Symmetry transformation completed.

 Number of N-1 electron functions:               7
 Number of N-2 electron functions:              28
 Number of singly external CSFs:               659
 Number of doubly external CSFs:            355020
 Total number of CSFs:                      355680

 Length of J-op  integral file:             103.62 MB
 Length of K-op  integral file:             127.95 MB
 Length of 3-ext integral record:             0.00 MB

 Integral transformation finished. Total CPU:   7.47 sec, npass=  1  Memory used:   7.45 MW

 Reference energy:                   -115.09924853

 Adding F12 terms to K(Cij), methodcc=6,  factor= 1.0

 ITER.      SQ.NORM     CORR.ENERGY   TOTAL ENERGY   ENERGY CHANGE        DEN1      VAR(S)    VAR(P)  DIIS     TIME  TIME/IT
   1      1.11803987    -0.45304754  -115.55229607    -0.00936664     0.00169337  0.15D-02  0.19D-02  1  1    47.51     2.09
   2      1.12551280    -0.45341511  -115.55266364    -0.00036757    -0.00908909  0.25D-04  0.23D-03  2  2    70.19     2.20
   3      1.12827911    -0.45359557  -115.55284410    -0.00018046    -0.00188097  0.15D-04  0.14D-04  3  3    91.86     2.21
   4      1.12924312    -0.45361359  -115.55286212    -0.00001802    -0.00060806  0.89D-06  0.12D-05  4  4   112.49     2.20
   5      1.12940256    -0.45361530  -115.55286382    -0.00000170    -0.00003888  0.24D-06  0.11D-06  5  5   135.10     2.21
   6      1.12944647    -0.45361291  -115.55286144     0.00000238    -0.00000447  0.38D-07  0.10D-07  6  6   157.35     2.23
   7      1.12945798    -0.45361202  -115.55286055     0.00000089    -0.00000308  0.42D-08  0.15D-08  6  1   177.75     2.21
   8      1.12945983    -0.45361209  -115.55286062    -0.00000007     0.00000036  0.71D-09  0.22D-09  6  3   200.12     2.22

 Norm of t1 vector:      0.05028730      S-energy:    -0.00000036      T1 diagnostic:  0.00950341
                                                                       D1 diagnostic:  0.02002253
                                                                       D2 diagnostic:  0.13692147 (internal)

 Adding energy correction from Wij-K(Fij), methodcc=6  factor= 1.0

  CCSD correlation energy              -0.453612093122
  MP2-F12 correction (uncoupled)       -0.038507619939
  C*T doubles correction               -0.001167864993
  f12b correction                       0.007101069753


 RESULTS
 =======

  Reference energy                   -115.097899790519
  F12 singles correction               -0.001348735298

 F12 singles corrections added to reference energy

  New reference energy               -115.099248525816

  F12a singlet correction              -0.035765198465
  F12a triplet correction              -0.003910286467
  F12a total correction                -0.039675484932

 F12a corrections for ansatz F12/3C(FIX) added to CCSD energy

  CCSD-F12a singlet pair energy        -0.351473529084
  CCSD-F12a triplet pair energy        -0.141813684196
  CCSD-F12a correlation energy         -0.493287578054

 !CCSD-F12a total energy             -115.592536103871

 F12b corrections for ansatz F12/3C(FIX) added to CCSD-F12a energy

  CCSD-F12b singlet pair energy        -0.344833840304
  CCSD-F12b triplet pair energy        -0.141352303223
  CCSD-F12b correlation energy         -0.486186508301

 !CCSD-F12b total energy             -115.585435034118

 Timing summary (sec):

 STEP                 CPU(USER)    SYS     CPU(TOT)    WALL
 Transformation          8.80      0.17      8.97      1.24
 CCSD iterations       173.60     12.72    186.32     17.87
 MP2-F12                18.26      0.40     18.66     10.60
 F12b energy            10.73      1.26     11.99      1.27

 Program statistics:

 Available memory in ccsd:               499999657
 Min. memory needed in ccsd:               1149135
 Max. memory used in ccsd:                 1443104
 Max. memory used in cckext:               1888566 ( 9 integral passes)



 **********************************************************************************************************************************
 DATASETS  * FILE   NREC   LENGTH (MB)   RECORD NAMES
              1      20      368.05       500      610      700      900      950      970     1000      129      960     1100   
                                          VAR    BASINP    GEOM    SYMINP    ZMAT    AOBASIS   BASIS     P2S    ABASIS      S 
                                         1400     1410     1200     1210     1080     1600     1650     1300     1700     1380   
                                           T        V       H0       H01     AOSYM     SMH    MOLCAS    ERIS     OPER     JKOP   

              2       6        0.90       700     1000      520     2100     7360     7350   
                                         GEOM     BASIS   MCVARS     RHF    F12ABS    EF12   

 PROGRAMS   *        TOTAL  CCSD-F12    HF-SCF       INT
 CPU TIMES  *       235.41    211.43     12.08     11.75
 REAL TIME  *        40.00 SEC
 DISK USED  *         1.06 GB
 **********************************************************************************************************************************
 SETTING ENERGY_CCSD_VTZ(1)              =    -115.59253610  AU                              
 SETTING ENERGY_CCSD_VTZ(2)              =    -115.58543503  AU                              
 SETTING BASIS          =    CC-PVQZ-F12


 Recomputing integrals since basis changed


 Using spherical harmonics

 Library entry C      S cc-pVQZ-F12          selected for orbital group  1
 Library entry C      P cc-pVQZ-F12          selected for orbital group  1
 Library entry C      D cc-pVQZ-F12          selected for orbital group  1
 Library entry C      F cc-pVQZ-F12          selected for orbital group  1
 Library entry C      G cc-pVQZ-F12          selected for orbital group  1
 Library entry O      S cc-pVQZ-F12          selected for orbital group  2
 Library entry O      P cc-pVQZ-F12          selected for orbital group  2
 Library entry O      D cc-pVQZ-F12          selected for orbital group  2
 Library entry O      F cc-pVQZ-F12          selected for orbital group  2
 Library entry O      G cc-pVQZ-F12          selected for orbital group  2
 Library entry H      S cc-pVQZ-F12          selected for orbital group  3
 Library entry H      P cc-pVQZ-F12          selected for orbital group  3
 Library entry H      D cc-pVQZ-F12          selected for orbital group  3
 Library entry H      F cc-pVQZ-F12          selected for orbital group  3


 PROGRAM * SEWARD (Integral evaluation for generally contracted gaussian basis sets)     Author: Roland Lindh, 1990

 Geometry written to block  1 of record 700

 Orientation using atomic masses  
 Molecule type: Asymmetric top
 Symmetry elements: X
 Rotational constants:      23.6333757     24.5065391    128.9114827 GHz  (calculated with average atomic masses)

 Point group  Cs  



 ATOMIC COORDINATES

 NR  ATOM    CHARGE       X              Y              Z

   1  C       6.00    0.000000000    0.021622205   -1.383678043
   2  O       8.00    0.000000000   -0.126383340    1.313817109
   3  H       1.00    0.000000000    1.563882378    1.966773405
   4  H1      1.00    1.672584827    1.025746373   -2.058106820
   5  H3      1.00   -1.672584827    1.025746373   -2.058106820
   6  H2      1.00    0.000000000   -1.866904676   -2.216820134

 Bond lengths in Bohr (Angstrom)

 1-2  2.701552468  1-4  2.064136508  1-5  2.064136508  1-6  2.064136508  2-3  1.812001689
     ( 1.429600000)     ( 1.092294000)     ( 1.092294000)     ( 1.092294000)     ( 0.958870000)

 Bond angles

  1-2-3  107.98120000   2-1-4  110.66460000   2-1-5  110.66460000   2-1-6  110.66460000

  4-1-5  108.25192757   4-1-6  108.25192757   5-1-6  108.25192757

 NUCLEAR CHARGE:                   18
 NUMBER OF PRIMITIVE AOS:         420
 NUMBER OF SYMMETRY AOS:          350
 NUMBER OF CONTRACTIONS:          310   (  190A'  +  120A"  )
 NUMBER OF INNER CORE ORBITALS:     0   (    0A'  +    0A"  )
 NUMBER OF OUTER CORE ORBITALS:     2   (    2A'  +    0A"  )
 NUMBER OF VALENCE ORBITALS:       12   (    9A'  +    3A"  )


 NUCLEAR REPULSION ENERGY   40.16373301


 Eigenvalues of metric

         1 0.138E-04 0.265E-04 0.279E-04 0.482E-04 0.822E-04 0.112E-03 0.135E-03 0.137E-03
         2 0.283E-04 0.135E-03 0.340E-03 0.428E-03 0.579E-03 0.584E-03 0.866E-03 0.134E-02


 Contracted 2-electron integrals neglected if value below      1.0D-12
 AO integral compression algorithm  1   Integral accuracy      1.0D-12

     3133.669 MB (compressed) written to integral file ( 57.9%)


 NUMBER OF SORTED TWO-ELECTRON INTEGRALS:  586185115.     BUFFER LENGTH:  32768
 NUMBER OF SEGMENTS:  19  SEGMENT LENGTH:   31996000      RECORD LENGTH: 524288

 Memory used in sort:      32.55 MW

 SORT1 READ   676773299. AND WROTE   574235320. INTEGRALS IN   1652 RECORDS. CPU TIME:     6.04 SEC, REAL TIME:     8.42 SEC
 SORT2 READ   574235320. AND WROTE   586185115. INTEGRALS IN  11954 RECORDS. CPU TIME:     5.81 SEC, REAL TIME:     7.59 SEC

 FILE SIZES:   FILE 1:  3166.2 MBYTE,  FILE 4:  6929.0 MBYTE,   TOTAL:  10095.3 MBYTE

 OPERATOR DM      FOR CENTER  0  COORDINATES:    0.000000    0.000000    0.000000


 **********************************************************************************************************************************
 DATASETS  * FILE   NREC   LENGTH (MB)   RECORD NAMES
              1      19     2696.03       500      610      700      900      950      970     1001      129      960     1100   
                                          VAR    BASINP    GEOM    SYMINP    ZMAT    AOBASIS   BASIS     P2S    ABASIS      S 
                                         1400     1410     1200     1210     1080     1600     1650     1300     1700   
                                           T        V       H0       H01     AOSYM     SMH    MOLCAS    ERIS     OPER   

              2       7        0.95       700     1000      520     2100     7360     7350     1001   
                                         GEOM     BASIS   MCVARS     RHF    F12ABS    EF12     BASIS   

 PROGRAMS   *        TOTAL       INT  CCSD-F12    HF-SCF       INT
 CPU TIMES  *       416.60    181.19    211.43     12.08     11.75
 REAL TIME  *        87.11 SEC
 DISK USED  *         9.40 GB
 **********************************************************************************************************************************


 Program * Restricted Hartree-Fock

 Molecular orbitals read from record     2100.2  Type=RHF/CANONICAL  

 Present basis size:      190  120
 Previous basis size:     114   64
 Previous occupation:       7    2
 Previous closed-shells:    7    2
 Previous core-orbitals:    2    0
 Present occupation:        7    2
 Present closed-shells:     7    2
 Present core-orbitals:     2    0
 Wavefunction symmetry:    1   Singlet 

 Orbital overlap <old|new>:  < 1.1| 1.1> = 1.000000   < 2.1| 2.1> = 1.000000   < 3.1| 3.1> = 0.999999   < 4.1| 4.1> = 0.999998
                             < 5.1| 5.1> = 0.999996   < 6.1| 6.1> = 0.999996   < 7.1| 7.1> = 0.999996   < 1.2| 1.2> = 0.999996
                             < 2.2| 2.2> = 0.999993


 Initial occupancy:   7   2

 NELEC=   18   SYM=1   MS2= 0   THRE=1.0D-08   THRD=3.2D-06   THRG=3.2D-06  HFMA2=F  DIIS_START=2   DIIS_MAX=10   DIIS_INCORE=F

 Level shifts:    0.00 (CLOSED)    0.00 (OPEN)    0.30 (GAP_MIN)

 ITER           ETOT              DE          GRAD        DDIFF     DIIS  NEXP   TIME(IT)  TIME(TOT)  DIAG
   1     -115.09970590    -115.09970590     0.00D+00     0.39D-01     0     0      27.15     27.34    start
   2     -115.10056335      -0.00085745     0.16D-02     0.49D-02     1     0      26.94     54.28    diag
   3     -115.10056737      -0.00000403     0.84D-04     0.57D-03     2     0      27.11     81.39    diag
   4     -115.10056743      -0.00000006     0.80D-05     0.56D-04     3     0      27.13    108.52    diag
   5     -115.10056745      -0.00000002     0.45D-05     0.89D-05     4     0      28.45    136.97    diag
   6     -115.10056745      -0.00000000     0.40D-06     0.27D-05     5     0      26.13    163.10    diag
   7     -115.10056745      -0.00000000     0.14D-06     0.32D-06     0     0      26.97    190.07    diag

 Final occupancy:   7   2

 !RHF STATE 1.1 Energy               -115.100567452123
  RHF One-electron energy            -236.595936311988
  RHF Two-electron energy              81.331635851144
  RHF Kinetic energy                  114.954244472830
  RHF Nuclear energy                   40.163733008720
  RHF Virial quotient                  -1.001272880179

 !RHF STATE 1.1 Dipole moment           0.00000000     0.59251259    -0.41241591
 Dipole moment /Debye                   0.00000000     1.50601678    -1.04825669

 Orbital energies:

           1.1          2.1          3.1          4.1          5.1          6.1          7.1          8.1          9.1
    -20.555542   -11.272041    -1.353921    -0.925920    -0.688226    -0.595809    -0.504049     0.045571     0.053167

           1.2          2.2          3.2          4.2
     -0.619202    -0.451628     0.059418     0.145811


 HOMO      2.2    -0.451628 =     -12.2894eV
 LUMO      8.1     0.045571 =       1.2401eV
 LUMO-HOMO         0.497199 =      13.5295eV

 Orbitals saved in record  2101.2


 **********************************************************************************************************************************
 DATASETS  * FILE   NREC   LENGTH (MB)   RECORD NAMES
              1      19     2696.03       500      610      700      900      950      970     1001      129      960     1100   
                                          VAR    BASINP    GEOM    SYMINP    ZMAT    AOBASIS   BASIS     P2S    ABASIS      S 
                                         1400     1410     1200     1210     1080     1600     1650     1300     1700   
                                           T        V       H0       H01     AOSYM     SMH    MOLCAS    ERIS     OPER   

              2       8        1.83       700     1000      520     2100     7360     7350     1001     2101   
                                         GEOM     BASIS   MCVARS     RHF    F12ABS    EF12     BASIS     RHF  

 PROGRAMS   *        TOTAL    HF-SCF       INT  CCSD-F12    HF-SCF       INT
 CPU TIMES  *       606.71    190.10    181.19    211.43     12.08     11.75
 REAL TIME  *       114.46 SEC
 DISK USED  *         9.40 GB
 **********************************************************************************************************************************


 PROGRAM * CCSD (Closed-shell coupled cluster)     Authors: C. Hampel, H.-J. Werner, 1991, M. Deegan, P.J. Knowles, 1992

                                  CCSD-F12 implementation by  H.-J. Werner, 2007

                   Density fitting integral evaluation by F.R. Manby, 2003,2007, G. Knizia, 2010



 Convergence thresholds:  THRVAR = 1.00D-08  THRDEN = 1.00D-06

 Number of core orbitals:           2 (   2   0 )
 Number of closed-shell orbitals:   7 (   5   2 )
 Number of external orbitals:     301 ( 183 118 )

 Molecular orbitals read from record     2101.2  Type=RHF/CANONICAL (state 1.1)

 MP2-F12 correlation treatment (H.-J. Werner, 2006)
 ==================================================

 Using MP2-F12 with ansatz 3C(FIX)

 Using projected zeroth-order Hamiltonian (+Z)

 FOCKRIB=T FOCKRIC=T FOCKRIP=T CABSP=T CABSA=T CABSK=T CABSF=T GBC=F EBC=F DMAT=T NOFIK=T NOPAO=1 SOLVE=-1  USEPAO=0
 EXCH_A= T EXCH_B= F EXCH_C= F EXCH_P= F

 Geminal basis:    OPTFULL  GEM_TYPE=SLATER  BETA=1.0  NGEM=6

 Optimizing Gaussian exponents for each gem_beta

 Geminal optimization for beta= 1.0000
 Weight function:   m=0, omega= 1.4646

 Augmented Hessian optimization of geminal fit. Trust ratio= 0.40000
 Convergence reached after   2 iterations. Final gradient= 8.66D-16, Step= 4.23D-06, Delta= 1.28D-09

 Alpha:                 0.19532     0.81920     2.85917     9.50073    35.69989   197.79328
 Coeff:                 0.27070     0.30552     0.18297     0.10986     0.06810     0.04224


 Symmetry turned off. Reference energy:       -115.100567452123

 All pairs explicitly correlated. Number of r12-pairs:           28

 Excluding core orbitals from MO domains

 AO(A)-basis ORBITAL           loaded. Number of functions:     310
 RI(R)-basis CC-PVQZ-F12/OPTRI loaded. Number of functions:     372
 DF-basis VQZ-F12/JKFIT        loaded. Number of functions:     588

 Screening thresholds:   THRAO=  1.00D-10  THRMO=  1.00D-09  THRPROD=  1.00D-09
                         THRSW=  1.00D-05  THROV=  1.00D-12  THRAOF12= 1.00D-08

 CPU time for Fock operators                     16.96 sec

 Construction of ABS:
 Smallest eigenvalue of S          2.77E-04  (threshold= 1.00E-08)
 Ratio eigmin/eigmax               4.86E-05  (threshold= 1.00E-09)
 Smallest eigenvalue of S kept     2.77E-04  (threshold= 2.77E-04, 0 functions deleted, 372 kept)

 Construction of CABS:
 Smallest eigenvalue of S          3.24E-08  (threshold= 1.00E-08)
 Ratio eigmin/eigmax               3.24E-08  (threshold= 1.00E-09)
 Smallest eigenvalue of S kept     3.24E-08  (threshold= 3.24E-08, 0 functions deleted, 372 kept)

 CPU time for CABS singles                        0.27 sec

 CABS-singles contribution of  -0.00015600 patched into reference energy.
 New reference energy        -115.10072345

 AO(A)-basis ORBITAL           loaded. Number of functions:     310
 RI(R)-basis CC-PVQZ-F12/OPTRI loaded. Number of functions:     372
 DF-basis CC-PVQZ-F12/MP2FIT   loaded. Number of functions:     656

 Screening thresholds:   THRAO=  1.00D-10  THRMO=  1.00D-09  THRPROD=  1.00D-09
                         THRSW=  1.00D-05  THROV=  1.00D-12  THRAOF12= 1.00D-08

 CPU time for 3-index integral evaluation        24.05 sec
 CPU time for first  half transformation          4.12 sec ( 2527.8 MFLOP/sec)
 CPU time for second half transformation          0.03 sec ( 5978.8 MFLOP/sec)
 CPU time for sorting                             0.01 sec
 CPU time for fitting                             0.30 sec (14238.4 MFLOP/sec)
 CPU time for tilde quantities                    0.39 sec (15602.4 MFLOP/sec)
 CPU time for assembly                            2.30 sec (18649.7 MFLOP/sec)
 CPU time for tranop_f12                          4.24 sec (11383.8 MFLOP/sec)
 CPU time for f12 integrals (total)              43.35 sec, Elapsed time:     16.39 sec
 CPU time for f12 matrices (total)                1.43 sec, Elapsed time:      0.20 sec

 Diagonal F12 approximation with fixed coefficients:  TSING= 0.500,  TTRIP= 0.250 (scaled by -1/beta)

 DF-MP2-F12 energy corrections:
 ==============================
 Approx.                                    Singlet             Triplet             Total
 DF-MP2-F12/3*C(DX,FIX)                -0.019752317350     -0.001386011553     -0.021138328904
 DF-MP2-F12/3*C(FIX)                   -0.018964430042     -0.001274486072     -0.020238916114
 DF-MP2-F12/3C(FIX)                    -0.018885888259     -0.001294685465     -0.020180573723

 DF-MP2-F12 correlation energies:
 ================================
 Approx.                                    Singlet             Triplet             Ecorr            Total Energy
 DF-MP2                                -0.309406937987     -0.155296935575     -0.464703873562   -115.565427325349
 DF-MP2-F12/3*C(DX,FIX)                -0.329159255338     -0.156682947128     -0.485842202466   -115.586565654253
 DF-MP2-F12/3*C(FIX)                   -0.328371368029     -0.156571421647     -0.484942789676   -115.585666241463
 DF-MP2-F12/3C(FIX)                    -0.328292826246     -0.156591621039     -0.484884447285   -115.585607899072

 SCS-DF-MP2 energies (F_SING= 1.20000  F_TRIP= 0.62222  F_PARALLEL= 0.33333):
 ============================================================================
 SCS-DF-MP2                            -0.467917529942   -115.568640981730
 SCS-DF-MP2-F12/3*C(DX,FIX)            -0.492482717952   -115.593206169739
 SCS-DF-MP2-F12/3*C(FIX)               -0.491467859548   -115.592191311336
 SCS-DF-MP2-F12/3C(FIX)                -0.491386177920   -115.592109629707

 Symmetry restored.
 Symmetry transformation completed.

 Number of N-1 electron functions:               7
 Number of N-2 electron functions:              28
 Number of singly external CSFs:              1151
 Number of doubly external CSFs:           1120422
 Total number of CSFs:                     1121574

 Length of J-op  integral file:             229.00 MB
 Length of K-op  integral file:             306.42 MB
 Length of 3-ext integral record:             0.00 MB

 Integral transformation finished. Total CPU:  81.72 sec, npass=  1  Memory used:  39.75 MW

 Reference energy:                   -115.10072345

 Adding F12 terms to K(Cij), methodcc=6,  factor= 1.0

 ITER.      SQ.NORM     CORR.ENERGY   TOTAL ENERGY   ENERGY CHANGE        DEN1      VAR(S)    VAR(P)  DIIS     TIME  TIME/IT
   1      1.11938892    -0.47252445  -115.57324790    -0.00774632     0.00334510  0.15D-02  0.19D-02  1  1   226.64     7.69
   2      1.12698112    -0.47332153  -115.57404498    -0.00079708    -0.00939854  0.26D-04  0.24D-03  2  2   310.23     7.93
   3      1.12995602    -0.47344863  -115.57417208    -0.00012710    -0.00208494  0.13D-04  0.13D-04  3  3   392.71     7.96
   4      1.13082961    -0.47344964  -115.57417309    -0.00000101    -0.00047531  0.91D-06  0.12D-05  4  4   474.96     7.98
   5      1.13099308    -0.47345246  -115.57417592    -0.00000283    -0.00004680  0.25D-06  0.11D-06  5  5   558.07     8.00
   6      1.13104087    -0.47344970  -115.57417315     0.00000276    -0.00000780  0.40D-07  0.11D-07  6  6   640.40     8.00
   7      1.13105205    -0.47344877  -115.57417222     0.00000093    -0.00000204  0.53D-08  0.20D-08  6  2   723.09     8.01
   8      1.13105496    -0.47344857  -115.57417202     0.00000020    -0.00000026  0.83D-09  0.26D-09  6  1   805.33     8.01

 Norm of t1 vector:      0.05036990      S-energy:    -0.00000014      T1 diagnostic:  0.00951902
                                                                       D1 diagnostic:  0.02024545
                                                                       D2 diagnostic:  0.13772486 (internal)

 Adding energy correction from Wij-K(Fij), methodcc=6  factor= 1.0

  CCSD correlation energy              -0.473448565476
  MP2-F12 correction (uncoupled)       -0.019965712226
  C*T doubles correction               -0.000235657036
  f12b correction                       0.004262344544


 RESULTS
 =======

  Reference energy                   -115.100567452123
  F12 singles correction               -0.000155999664

 F12 singles corrections added to reference energy

  New reference energy               -115.100723451787

  F12a singlet correction              -0.018918756828
  F12a triplet correction              -0.001282612434
  F12a total correction                -0.020201369263

 F12a corrections for ansatz F12/3C(FIX) added to CCSD energy

  CCSD-F12a singlet pair energy        -0.351732938904
  CCSD-F12a triplet pair energy        -0.141916856629
  CCSD-F12a correlation energy         -0.493649934739

 !CCSD-F12a total energy             -115.594373386526

 F12b corrections for ansatz F12/3C(FIX) added to CCSD-F12a energy

  CCSD-F12b singlet pair energy        -0.347656067255
  CCSD-F12b triplet pair energy        -0.141731383735
  CCSD-F12b correlation energy         -0.489387590195

 !CCSD-F12b total energy             -115.590111041982

 Timing summary (sec):

 STEP                 CPU(USER)    SYS     CPU(TOT)    WALL
 Transformation         83.64      1.31     84.95     10.73
 CCSD iterations       659.08     26.25    685.33     64.15
 MP2-F12                63.01      0.88     63.89     29.93
 F12b energy            75.81      2.92     78.73      7.31

 Program statistics:

 Available memory in ccsd:               499999650
 Min. memory needed in ccsd:               3543551
 Max. memory used in ccsd:                 4486316
 Max. memory used in cckext:               7504336 ( 9 integral passes)



 **********************************************************************************************************************************
 DATASETS  * FILE   NREC   LENGTH (MB)   RECORD NAMES
              1      20     3079.46       500      610      700      900      950      970     1001      129      960     1100   
                                          VAR    BASINP    GEOM    SYMINP    ZMAT    AOBASIS   BASIS     P2S    ABASIS      S 
                                         1400     1410     1200     1210     1080     1600     1650     1300     1700     1380   
                                           T        V       H0       H01     AOSYM     SMH    MOLCAS    ERIS     OPER     JKOP   

              2       8        1.83       700     1000      520     2100     7360     7350     1001     2101   
                                         GEOM     BASIS   MCVARS     RHF    F12ABS    EF12     BASIS     RHF  

 PROGRAMS   *        TOTAL  CCSD-F12    HF-SCF       INT  CCSD-F12    HF-SCF       INT
 CPU TIMES  *      1488.30    881.58    190.10    181.19    211.43     12.08     11.75
 REAL TIME  *       226.68 SEC
 DISK USED  *         9.40 GB
 **********************************************************************************************************************************
 SETTING ENERGY_CCSD_VQZ(1)              =    -115.59437339  AU                              
 SETTING ENERGY_CCSD_VQZ(2)              =    -115.59011104  AU                              
 SETTING BASIS          =    CC-PVTZ


 Recomputing integrals since basis changed


 Using spherical harmonics

 Library entry C      S cc-pVTZ              selected for orbital group  1
 Library entry C      P cc-pVTZ              selected for orbital group  1
 Library entry C      D cc-pVTZ              selected for orbital group  1
 Library entry C      F cc-pVTZ              selected for orbital group  1
 Library entry O      S cc-pVTZ              selected for orbital group  2
 Library entry O      P cc-pVTZ              selected for orbital group  2
 Library entry O      D cc-pVTZ              selected for orbital group  2
 Library entry O      F cc-pVTZ              selected for orbital group  2
 Library entry H      S cc-pVTZ              selected for orbital group  3
 Library entry H      P cc-pVTZ              selected for orbital group  3
 Library entry H      D cc-pVTZ              selected for orbital group  3


 PROGRAM * SEWARD (Integral evaluation for generally contracted gaussian basis sets)     Author: Roland Lindh, 1990

 Geometry written to block  1 of record 700

 Orientation using atomic masses  
 Molecule type: Asymmetric top
 Symmetry elements: X
 Rotational constants:      23.6333757     24.5065391    128.9114827 GHz  (calculated with average atomic masses)

 Point group  Cs  



 ATOMIC COORDINATES

 NR  ATOM    CHARGE       X              Y              Z

   1  C       6.00    0.000000000    0.021622205   -1.383678043
   2  O       8.00    0.000000000   -0.126383340    1.313817109
   3  H       1.00    0.000000000    1.563882378    1.966773405
   4  H1      1.00    1.672584827    1.025746373   -2.058106820
   5  H3      1.00   -1.672584827    1.025746373   -2.058106820
   6  H2      1.00    0.000000000   -1.866904676   -2.216820134

 Bond lengths in Bohr (Angstrom)

 1-2  2.701552468  1-4  2.064136508  1-5  2.064136508  1-6  2.064136508  2-3  1.812001689
     ( 1.429600000)     ( 1.092294000)     ( 1.092294000)     ( 1.092294000)     ( 0.958870000)

 Bond angles

  1-2-3  107.98120000   2-1-4  110.66460000   2-1-5  110.66460000   2-1-6  110.66460000

  4-1-5  108.25192757   4-1-6  108.25192757   5-1-6  108.25192757

 NUCLEAR CHARGE:                   18
 NUMBER OF PRIMITIVE AOS:         162
 NUMBER OF SYMMETRY AOS:          148
 NUMBER OF CONTRACTIONS:          116   (   74A'  +   42A"  )
 NUMBER OF INNER CORE ORBITALS:     0   (    0A'  +    0A"  )
 NUMBER OF OUTER CORE ORBITALS:     2   (    2A'  +    0A"  )
 NUMBER OF VALENCE ORBITALS:       12   (    9A'  +    3A"  )


 NUCLEAR REPULSION ENERGY   40.16373301

 Eigenvalues of metric

         1 0.133E-02 0.180E-02 0.238E-02 0.328E-02 0.465E-02 0.744E-02 0.101E-01 0.104E-01
         2 0.190E-02 0.106E-01 0.222E-01 0.315E-01 0.378E-01 0.474E-01 0.779E-01 0.972E-01


 Contracted 2-electron integrals neglected if value below      1.0D-11
 AO integral compression algorithm  1   Integral accuracy      1.0D-11

     59.507 MB (compressed) written to integral file ( 53.4%)


 NUMBER OF SORTED TWO-ELECTRON INTEGRALS:   11777331.     BUFFER LENGTH:  32768
 NUMBER OF SEGMENTS:   1  SEGMENT LENGTH:   11777331      RECORD LENGTH: 524288

 Memory used in sort:      12.33 MW

 SORT1 READ    13984354. AND WROTE    11633326. INTEGRALS IN     34 RECORDS. CPU TIME:     0.11 SEC, REAL TIME:     0.17 SEC
 SORT2 READ    11633326. AND WROTE    11777331. INTEGRALS IN    227 RECORDS. CPU TIME:     0.19 SEC, REAL TIME:     0.23 SEC

 FILE SIZES:   FILE 1:    90.9 MBYTE,  FILE 4:   142.6 MBYTE,   TOTAL:    233.5 MBYTE

 OPERATOR DM      FOR CENTER  0  COORDINATES:    0.000000    0.000000    0.000000


 **********************************************************************************************************************************
 DATASETS  * FILE   NREC   LENGTH (MB)   RECORD NAMES
              1      19       86.72       500      610      700      900      950      970     1002      129      960     1100   
                                          VAR    BASINP    GEOM    SYMINP    ZMAT    AOBASIS   BASIS     P2S    ABASIS      S 
                                         1400     1410     1200     1210     1080     1600     1650     1300     1700   
                                           T        V       H0       H01     AOSYM     SMH    MOLCAS    ERIS     OPER   

              2       9        2.43       700     1000      520     2100     7360     7350     1001     2101     1002   
                                         GEOM     BASIS   MCVARS     RHF    F12ABS    EF12     BASIS     RHF     BASIS   

 PROGRAMS   *        TOTAL       INT  CCSD-F12    HF-SCF       INT  CCSD-F12    HF-SCF       INT
 CPU TIMES  *      1489.81      1.51    881.58    190.10    181.19    211.43     12.08     11.75
 REAL TIME  *       228.48 SEC
 DISK USED  *         9.40 GB
 **********************************************************************************************************************************


 Program * Restricted Hartree-Fock

 Molecular orbitals read from record     2101.2  Type=RHF/CANONICAL (state 1.1)

 Present basis size:       74   42
 Previous basis size:     190  120
 Previous occupation:       7    2
 Previous closed-shells:    7    2
 Previous core-orbitals:    2    0
 Present occupation:        7    2
 Present closed-shells:     7    2
 Present core-orbitals:     2    0
 Wavefunction symmetry:    1   Singlet 

 Orbital overlap <old|new>:  < 1.1| 1.1> = 0.999999   < 2.1| 2.1> = 0.999999   < 3.1| 3.1> = 0.999985   < 4.1| 4.1> = 0.999984
                             < 5.1| 5.1> = 0.999960   < 6.1| 6.1> = 0.999929   < 7.1| 7.1> = 0.999708   < 1.2| 1.2> = 0.999945
                             < 2.2| 2.2> = 0.999454


 Initial occupancy:   7   2

 NELEC=   18   SYM=1   MS2= 0   THRE=1.0D-08   THRD=3.2D-06   THRG=3.2D-06  HFMA2=F  DIIS_START=2   DIIS_MAX=10   DIIS_INCORE=F

 Level shifts:    0.00 (CLOSED)    0.00 (OPEN)    0.30 (GAP_MIN)

 ITER           ETOT              DE          GRAD        DDIFF     DIIS  NEXP   TIME(IT)  TIME(TOT)  DIAG
   1     -115.08705190    -115.08705190     0.00D+00     0.98D-01     0     0       0.16      0.24    start
   2     -115.08837210      -0.00132021     0.22D-02     0.59D-02     1     0       0.14      0.38    diag
   3     -115.08840104      -0.00002894     0.21D-03     0.70D-03     2     0       0.15      0.53    diag
   4     -115.08840325      -0.00000221     0.49D-04     0.88D-04     3     0       0.13      0.66    diag
   5     -115.08840373      -0.00000048     0.27D-04     0.32D-04     4     0       0.14      0.80    diag
   6     -115.08840378      -0.00000004     0.63D-05     0.12D-04     5     0       0.14      0.94    diag
   7     -115.08840378      -0.00000000     0.89D-06     0.14D-05     6     0       0.14      1.08    diag
   8     -115.08840378      -0.00000000     0.20D-06     0.28D-06     0     0       0.13      1.21    fixocc

 Final occupancy:   7   2

 !RHF STATE 1.1 Energy               -115.088403776436
  RHF One-electron energy            -236.626091716751
  RHF Two-electron energy              81.373954931595
  RHF Kinetic energy                  114.923281089385
  RHF Nuclear energy                   40.163733008720
  RHF Virial quotient                  -1.001436807977

 !RHF STATE 1.1 Dipole moment           0.00000000     0.58982038    -0.40025263
 Dipole moment /Debye                   0.00000000     1.49917386    -1.01734072

 Orbital energies:

           1.1          2.1          3.1          4.1          5.1          6.1          7.1          8.1          9.1
    -20.551356   -11.270946    -1.350251    -0.923786    -0.684332    -0.592637    -0.500851     0.138092     0.177521

           1.2          2.2          3.2          4.2
     -0.616604    -0.448338     0.219980     0.399126


 HOMO      2.2    -0.448338 =     -12.1999eV
 LUMO      8.1     0.138092 =       3.7577eV
 LUMO-HOMO         0.586431 =      15.9576eV

 Orbitals saved in record  2102.2


 **********************************************************************************************************************************
 DATASETS  * FILE   NREC   LENGTH (MB)   RECORD NAMES
              1      19       86.72       500      610      700      900      950      970     1002      129      960     1100   
                                          VAR    BASINP    GEOM    SYMINP    ZMAT    AOBASIS   BASIS     P2S    ABASIS      S 
                                         1400     1410     1200     1210     1080     1600     1650     1300     1700   
                                           T        V       H0       H01     AOSYM     SMH    MOLCAS    ERIS     OPER   

              2      10        2.64       700     1000      520     2100     7360     7350     1001     2101     1002     2102   
                                         GEOM     BASIS   MCVARS     RHF    F12ABS    EF12     BASIS     RHF     BASIS     RHF  

 PROGRAMS   *        TOTAL    HF-SCF       INT  CCSD-F12    HF-SCF       INT  CCSD-F12    HF-SCF       INT
 CPU TIMES  *      1491.04      1.23      1.51    881.58    190.10    181.19    211.43     12.08     11.75
 REAL TIME  *       229.06 SEC
 DISK USED  *         9.40 GB
 **********************************************************************************************************************************


 PROGRAM * CCSD (Closed-shell coupled cluster)     Authors: C. Hampel, H.-J. Werner, 1991, M. Deegan, P.J. Knowles, 1992


 Convergence thresholds:  THRVAR = 1.00D-08  THRDEN = 1.00D-06

 CCSD(T)     terms to be evaluated (factor= 1.000)


 Number of core orbitals:           2 (   2   0 )
 Number of closed-shell orbitals:   7 (   5   2 )
 Number of external orbitals:     107 (  67  40 )

 Molecular orbitals read from record     2102.2  Type=RHF/CANONICAL (state 1.1)

 Number of N-1 electron functions:               7
 Number of N-2 electron functions:              28
 Number of singly external CSFs:               415
 Number of doubly external CSFs:            142265
 Total number of CSFs:                      142681

 Length of J-op  integral file:               0.00 MB
 Length of K-op  integral file:               0.53 MB
 Length of 3-ext integral record:             0.00 MB

 Memory could be reduced to 6.32 Mwords without degradation in triples

 Integral transformation finished. Total CPU:   1.30 sec, npass=  1  Memory used:   2.19 MW

 Reference energy:                   -115.08840378

 MP2 singlet pair energy:              -0.28106570
 MP2 triplet pair energy:              -0.14717697
 MP2 correlation energy:               -0.42824267
 MP2 total energy:                   -115.51664645

 SCS-MP2 correlation energy:           -0.42885562   (PS=  1.200000  PT=  0.333333)
 SCS-MP2 total energy:               -115.51725940

 ITER.      SQ.NORM     CORR.ENERGY   TOTAL ENERGY   ENERGY CHANGE        DEN1      VAR(S)    VAR(P)  DIIS     TIME  TIME/IT
   1      1.11816320    -0.44557595  -115.53397973    -0.01733328    -0.00697027  0.12D-02  0.18D-02  1  1    22.87     1.76
   2      1.12606505    -0.44676726  -115.53517103    -0.00119131    -0.00946248  0.16D-04  0.22D-03  2  2    41.65     1.68
   3      1.12866493    -0.44684467  -115.53524845    -0.00007742    -0.00178853  0.74D-05  0.10D-04  3  3    62.01     1.71
   4      1.12930849    -0.44684676  -115.53525054    -0.00000209    -0.00033422  0.38D-06  0.84D-06  4  4    78.94     1.64
   5      1.12941502    -0.44684861  -115.53525238    -0.00000185    -0.00004037  0.12D-06  0.68D-07  5  5    98.52     1.65
   6      1.12944087    -0.44684643  -115.53525021     0.00000218    -0.00000768  0.20D-07  0.54D-08  6  6   115.97     1.63
   7      1.12944472    -0.44684636  -115.53525014     0.00000007    -0.00000025  0.29D-08  0.99D-09  6  2   135.19     1.63
   8      1.12944619    -0.44684631  -115.53525009     0.00000005     0.00000002  0.44D-09  0.12D-09  6  1   151.95     1.61

 Norm of t1 vector:      0.04464181      S-energy:    -0.00000016      T1 diagnostic:  0.00843651
                                                                       D1 diagnostic:  0.01745669
                                                                       D2 diagnostic:  0.13794098 (internal)


 Total CPU time for triples:     10.65 sec


 RESULTS
 =======

  Reference energy                   -115.088403776436
  CCSD singlet pair energy             -0.313237678590
  CCSD triplet pair energy             -0.133608470548
  CCSD correlation energy              -0.446846312370

  Triples (T) contribution             -0.014801805680
  Total correlation energy             -0.461648118049

  CCSD total energy                  -115.535250088806
  CCSD[T] energy                     -115.550518233475
  CCSD-T energy                      -115.549784991233
 !CCSD(T) total energy               -115.550051894485

 Timing summary (sec):

 STEP                 CPU(USER)    SYS     CPU(TOT)    WALL
 Transformation          2.26      0.03      2.29      0.31
 CCSD iterations       151.46      2.05    153.51     13.01
 Triples                10.65      0.12     10.77      0.78

 Program statistics:

 Available memory in ccsd:               499999783
 Min. memory needed in ccsd:                470717
 Max. memory used in ccsd:                  585702
 Max. memory used in cckext:                692873 ( 8 integral passes)



 **********************************************************************************************************************************
 DATASETS  * FILE   NREC   LENGTH (MB)   RECORD NAMES
              1      20      105.69       500      610      700      900      950      970     1002      129      960     1100   
                                          VAR    BASINP    GEOM    SYMINP    ZMAT    AOBASIS   BASIS     P2S    ABASIS      S 
                                         1400     1410     1200     1210     1080     1600     1650     1300     1700     1380   
                                           T        V       H0       H01     AOSYM     SMH    MOLCAS    ERIS     OPER     JKOP   

              2      10        2.64       700     1000      520     2100     7360     7350     1001     2101     1002     2102   
                                         GEOM     BASIS   MCVARS     RHF    F12ABS    EF12     BASIS     RHF     BASIS     RHF  

 PROGRAMS   *        TOTAL   CCSD(T)    HF-SCF       INT  CCSD-F12    HF-SCF       INT  CCSD-F12    HF-SCF       INT
 CPU TIMES  *      1655.47    164.43      1.23      1.51    881.58    190.10    181.19    211.43     12.08     11.75
 REAL TIME  *       243.20 SEC
 DISK USED  *         9.40 GB
 **********************************************************************************************************************************
 SETTING ENERGY_T_VTZ   =      -115.55005189  AU                              
 SETTING BASIS          =    CC-PVQZ


 Recomputing integrals since basis changed


 Using spherical harmonics

 Library entry C      S cc-pVQZ              selected for orbital group  1
 Library entry C      P cc-pVQZ              selected for orbital group  1
 Library entry C      D cc-pVQZ              selected for orbital group  1
 Library entry C      F cc-pVQZ              selected for orbital group  1
 Library entry C      G cc-pVQZ              selected for orbital group  1
 Library entry O      S cc-pVQZ              selected for orbital group  2
 Library entry O      P cc-pVQZ              selected for orbital group  2
 Library entry O      D cc-pVQZ              selected for orbital group  2
 Library entry O      F cc-pVQZ              selected for orbital group  2
 Library entry O      G cc-pVQZ              selected for orbital group  2
 Library entry H      S cc-pVQZ              selected for orbital group  3
 Library entry H      P cc-pVQZ              selected for orbital group  3
 Library entry H      D cc-pVQZ              selected for orbital group  3
 Library entry H      F cc-pVQZ              selected for orbital group  3


 PROGRAM * SEWARD (Integral evaluation for generally contracted gaussian basis sets)     Author: Roland Lindh, 1990

 Geometry written to block  1 of record 700

 Orientation using atomic masses  
 Molecule type: Asymmetric top
 Symmetry elements: X
 Rotational constants:      23.6333757     24.5065391    128.9114827 GHz  (calculated with average atomic masses)

 Point group  Cs  



 ATOMIC COORDINATES

 NR  ATOM    CHARGE       X              Y              Z

   1  C       6.00    0.000000000    0.021622205   -1.383678043
   2  O       8.00    0.000000000   -0.126383340    1.313817109
   3  H       1.00    0.000000000    1.563882378    1.966773405
   4  H1      1.00    1.672584827    1.025746373   -2.058106820
   5  H3      1.00   -1.672584827    1.025746373   -2.058106820
   6  H2      1.00    0.000000000   -1.866904676   -2.216820134

 Bond lengths in Bohr (Angstrom)

 1-2  2.701552468  1-4  2.064136508  1-5  2.064136508  1-6  2.064136508  2-3  1.812001689
     ( 1.429600000)     ( 1.092294000)     ( 1.092294000)     ( 1.092294000)     ( 0.958870000)

 Bond angles

  1-2-3  107.98120000   2-1-4  110.66460000   2-1-5  110.66460000   2-1-6  110.66460000

  4-1-5  108.25192757   4-1-6  108.25192757   5-1-6  108.25192757

 NUCLEAR CHARGE:                   18
 NUMBER OF PRIMITIVE AOS:         314
 NUMBER OF SYMMETRY AOS:          264
 NUMBER OF CONTRACTIONS:          230   (  140A'  +   90A"  )
 NUMBER OF INNER CORE ORBITALS:     0   (    0A'  +    0A"  )
 NUMBER OF OUTER CORE ORBITALS:     2   (    2A'  +    0A"  )
 NUMBER OF VALENCE ORBITALS:       12   (    9A'  +    3A"  )


 NUCLEAR REPULSION ENERGY   40.16373301


 Eigenvalues of metric

         1 0.144E-03 0.248E-03 0.275E-03 0.438E-03 0.534E-03 0.103E-02 0.153E-02 0.159E-02
         2 0.286E-03 0.165E-02 0.475E-02 0.551E-02 0.821E-02 0.948E-02 0.105E-01 0.109E-01


 Contracted 2-electron integrals neglected if value below      1.0D-11
 AO integral compression algorithm  1   Integral accuracy      1.0D-11

     803.996 MB (compressed) written to integral file ( 48.6%)


 NUMBER OF SORTED TWO-ELECTRON INTEGRALS:  178352895.     BUFFER LENGTH:  32768
 NUMBER OF SEGMENTS:  12  SEGMENT LENGTH:   15999503      RECORD LENGTH: 524288

 Memory used in sort:      16.56 MW

 SORT1 READ   206945457. AND WROTE   173349041. INTEGRALS IN    500 RECORDS. CPU TIME:     1.99 SEC, REAL TIME:     2.65 SEC
 SORT2 READ   173349041. AND WROTE   178352895. INTEGRALS IN   3067 RECORDS. CPU TIME:     1.89 SEC, REAL TIME:     2.42 SEC

 FILE SIZES:   FILE 1:   849.2 MBYTE,  FILE 4:  2097.2 MBYTE,   TOTAL:   2946.4 MBYTE

 OPERATOR DM      FOR CENTER  0  COORDINATES:    0.000000    0.000000    0.000000


 **********************************************************************************************************************************
 DATASETS  * FILE   NREC   LENGTH (MB)   RECORD NAMES
              1      19      810.14       500      610      700      900      950      970     1003      129      960     1100   
                                          VAR    BASINP    GEOM    SYMINP    ZMAT    AOBASIS   BASIS     P2S    ABASIS      S 
                                         1400     1410     1200     1210     1080     1600     1650     1300     1700   
                                           T        V       H0       H01     AOSYM     SMH    MOLCAS    ERIS     OPER   

              2      11        2.77       700     1000      520     2100     7360     7350     1001     2101     1002     2102   
                                         GEOM     BASIS   MCVARS     RHF    F12ABS    EF12     BASIS     RHF     BASIS     RHF  
                                         1003   
                                         BASIS   

 PROGRAMS   *        TOTAL       INT   CCSD(T)    HF-SCF       INT  CCSD-F12    HF-SCF       INT  CCSD-F12    HF-SCF       INT
 CPU TIMES  *      1692.37     36.90    164.43      1.23      1.51    881.58    190.10    181.19    211.43     12.08     11.75
 REAL TIME  *       258.80 SEC
 DISK USED  *         9.40 GB
 **********************************************************************************************************************************


 Program * Restricted Hartree-Fock

 Molecular orbitals read from record     2102.2  Type=RHF/CANONICAL (state 1.1)

 Present basis size:      140   90
 Previous basis size:      74   42
 Previous occupation:       7    2
 Previous closed-shells:    7    2
 Previous core-orbitals:    2    0
 Present occupation:        7    2
 Present closed-shells:     7    2
 Present core-orbitals:     2    0
 Wavefunction symmetry:    1   Singlet 

 Orbital overlap <old|new>:  < 1.1| 1.1> = 0.999999   < 2.1| 2.1> = 0.999999   < 3.1| 3.1> = 0.999994   < 4.1| 4.1> = 0.999993
                             < 5.1| 5.1> = 0.999980   < 6.1| 6.1> = 0.999974   < 7.1| 7.1> = 0.999961   < 1.2| 1.2> = 0.999972
                             < 2.2| 2.2> = 0.999926


 Initial occupancy:   7   2

 NELEC=   18   SYM=1   MS2= 0   THRE=1.0D-08   THRD=3.2D-06   THRG=3.2D-06  HFMA2=F  DIIS_START=2   DIIS_MAX=10   DIIS_INCORE=F

 Level shifts:    0.00 (CLOSED)    0.00 (OPEN)    0.30 (GAP_MIN)

 ITER           ETOT              DE          GRAD        DDIFF     DIIS  NEXP   TIME(IT)  TIME(TOT)  DIAG
   1     -115.09566917    -115.09566917     0.00D+00     0.51D-01     0     0       5.12      5.23    start
   2     -115.09787733      -0.00220816     0.26D-02     0.67D-02     1     0       5.08     10.31    diag
   3     -115.09791468      -0.00003734     0.17D-03     0.95D-03     2     0       5.05     15.36    diag
   4     -115.09791705      -0.00000237     0.34D-04     0.13D-03     3     0       5.08     20.44    diag
   5     -115.09791751      -0.00000047     0.20D-04     0.27D-04     4     0       5.08     25.52    diag
   6     -115.09791758      -0.00000007     0.51D-05     0.89D-05     5     0       5.07     30.59    diag
   7     -115.09791758      -0.00000000     0.83D-06     0.17D-05     6     0       5.05     35.64    diag
   8     -115.09791758      -0.00000000     0.24D-06     0.25D-06     0     0       5.11     40.75    fixocc

 Final occupancy:   7   2

 !RHF STATE 1.1 Energy               -115.097917584314
  RHF One-electron energy            -236.612862311304
  RHF Two-electron energy              81.351211718269
  RHF Kinetic energy                  114.953898135410
  RHF Nuclear energy                   40.163733008720
  RHF Virial quotient                  -1.001252845282

 !RHF STATE 1.1 Dipole moment           0.00000000     0.59106281    -0.40656885
 Dipole moment /Debye                   0.00000000     1.50233181    -1.03339495

 Orbital energies:

           1.1          2.1          3.1          4.1          5.1          6.1          7.1          8.1          9.1
    -20.553537   -11.271312    -1.352389    -0.925027    -0.686746    -0.594586    -0.502867     0.110999     0.149910

           1.2          2.2          3.2          4.2
     -0.618220    -0.450508     0.189342     0.300739


 HOMO      2.2    -0.450508 =     -12.2589eV
 LUMO      8.1     0.110999 =       3.0204eV
 LUMO-HOMO         0.561507 =      15.2794eV

 Orbitals saved in record  2103.2


 **********************************************************************************************************************************
 DATASETS  * FILE   NREC   LENGTH (MB)   RECORD NAMES
              1      19      810.14       500      610      700      900      950      970     1003      129      960     1100   
                                          VAR    BASINP    GEOM    SYMINP    ZMAT    AOBASIS   BASIS     P2S    ABASIS      S 
                                         1400     1410     1200     1210     1080     1600     1650     1300     1700   
                                           T        V       H0       H01     AOSYM     SMH    MOLCAS    ERIS     OPER   

              2      12        3.30       700     1000      520     2100     7360     7350     1001     2101     1002     2102   
                                         GEOM     BASIS   MCVARS     RHF    F12ABS    EF12     BASIS     RHF     BASIS     RHF  
                                         1003     2103   
                                         BASIS     RHF  

 PROGRAMS   *        TOTAL    HF-SCF       INT   CCSD(T)    HF-SCF       INT  CCSD-F12    HF-SCF       INT  CCSD-F12    HF-SCF
 CPU TIMES  *      1733.16     40.78     36.90    164.43      1.23      1.51    881.58    190.10    181.19    211.43     12.08
 REAL TIME  *       267.98 SEC
 DISK USED  *         9.40 GB
 **********************************************************************************************************************************


 PROGRAM * CCSD (Closed-shell coupled cluster)     Authors: C. Hampel, H.-J. Werner, 1991, M. Deegan, P.J. Knowles, 1992


 Convergence thresholds:  THRVAR = 1.00D-08  THRDEN = 1.00D-06

 CCSD(T)     terms to be evaluated (factor= 1.000)


 Number of core orbitals:           2 (   2   0 )
 Number of closed-shell orbitals:   7 (   5   2 )
 Number of external orbitals:     221 ( 133  88 )

 Molecular orbitals read from record     2103.2  Type=RHF/CANONICAL (state 1.1)

 Number of N-1 electron functions:               7
 Number of N-2 electron functions:              28
 Number of singly external CSFs:               841
 Number of doubly external CSFs:            603632
 Total number of CSFs:                      604474

 Length of J-op  integral file:               0.00 MB
 Length of K-op  integral file:               1.93 MB
 Length of 3-ext integral record:             0.00 MB

 Memory could be reduced to 53.22 Mwords without degradation in triples

 Integral transformation finished. Total CPU:  23.57 sec, npass=  1  Memory used:  16.61 MW

 Reference energy:                   -115.09791758

 MP2 singlet pair energy:              -0.30592438
 MP2 triplet pair energy:              -0.15364353
 MP2 correlation energy:               -0.45956791
 MP2 total energy:                   -115.55748549

 SCS-MP2 correlation energy:           -0.46270967   (PS=  1.200000  PT=  0.333333)
 SCS-MP2 total energy:               -115.56062726

 ITER.      SQ.NORM     CORR.ENERGY   TOTAL ENERGY   ENERGY CHANGE        DEN1      VAR(S)    VAR(P)  DIIS     TIME  TIME/IT
   1      1.12021811    -0.47244066  -115.57035824    -0.01287275    -0.00205353  0.14D-02  0.19D-02  1  1    57.61     3.34
   2      1.12794611    -0.47350961  -115.57142720    -0.00106895    -0.00948297  0.21D-04  0.23D-03  2  2    92.30     3.45
   3      1.13082453    -0.47357839  -115.57149597    -0.00006877    -0.00204351  0.78D-05  0.12D-04  3  3   124.07     3.42
   4      1.13154537    -0.47357185  -115.57148943     0.00000654    -0.00037178  0.47D-06  0.96D-06  4  4   156.29     3.41
   5      1.13166850    -0.47357501  -115.57149259    -0.00000316    -0.00004341  0.11D-06  0.78D-07  5  5   189.39     3.42
   6      1.13169839    -0.47357291  -115.57149050     0.00000210    -0.00000872  0.19D-07  0.62D-08  6  6   223.60     3.45
   7      1.13170269    -0.47357249  -115.57149007     0.00000043    -0.00000089  0.31D-08  0.10D-08  6  2   259.16     3.48
   8      1.13170367    -0.47357246  -115.57149004     0.00000003     0.00000010  0.58D-09  0.14D-09  6  1   292.26     3.48

 Norm of t1 vector:      0.04722975      S-energy:    -0.00000017      T1 diagnostic:  0.00892558
                                                                       D1 diagnostic:  0.01816623
                                                                       D2 diagnostic:  0.13848101 (internal)


 Total CPU time for triples:     71.97 sec


 RESULTS
 =======

  Reference energy                   -115.097917584314
  CCSD singlet pair energy             -0.334303501642
  CCSD triplet pair energy             -0.139268788128
  CCSD correlation energy              -0.473572457185

  Triples (T) contribution             -0.016729801579
  Total correlation energy             -0.490302258764

  CCSD total energy                  -115.571490041499
  CCSD[T] energy                     -115.588743649524
  CCSD-T energy                      -115.587962253629
 !CCSD(T) total energy               -115.588219843078

 Timing summary (sec):

 STEP                 CPU(USER)    SYS     CPU(TOT)    WALL
 Transformation         25.12      0.62     25.74      3.28
 CCSD iterations       267.63     20.84    288.47     27.85
 Triples                71.97      0.79     72.76      9.54

 Program statistics:

 Available memory in ccsd:               499999776
 Min. memory needed in ccsd:               1922261
 Max. memory used in ccsd:                 2426076
 Max. memory used in cckext:               3509126 ( 8 integral passes)



 **********************************************************************************************************************************
 DATASETS  * FILE   NREC   LENGTH (MB)   RECORD NAMES
              1      20      964.52       500      610      700      900      950      970     1003      129      960     1100   
                                          VAR    BASINP    GEOM    SYMINP    ZMAT    AOBASIS   BASIS     P2S    ABASIS      S 
                                         1400     1410     1200     1210     1080     1600     1650     1300     1700     1380   
                                           T        V       H0       H01     AOSYM     SMH    MOLCAS    ERIS     OPER     JKOP   

              2      12        3.30       700     1000      520     2100     7360     7350     1001     2101     1002     2102   
                                         GEOM     BASIS   MCVARS     RHF    F12ABS    EF12     BASIS     RHF     BASIS     RHF  
                                         1003     2103   
                                         BASIS     RHF  

 PROGRAMS   *        TOTAL   CCSD(T)    HF-SCF       INT   CCSD(T)    HF-SCF       INT  CCSD-F12    HF-SCF       INT  CCSD-F12
 CPU TIMES  *      2097.93    364.75     40.78     36.90    164.43      1.23      1.51    881.58    190.10    181.19    211.43
 REAL TIME  *       308.70 SEC
 DISK USED  *         9.40 GB
 **********************************************************************************************************************************
 SETTING ENERGY_T_VQZ   =      -115.58821984  AU                              
 SETTING E_CBS_CCSD(1)  =       115.59003117  AU                              
 SETTING E_CBS_CCSD(2)  =       115.57905982  AU                              
 SETTING E_CBS_T        =       115.48251470  AU                              
 SETTING E_CBS(1)       =       231.07254588  AU                              
 SETTING E_CBS(2)       =       231.06157452  AU                              

 CCSD(T)/cc-pVQZ energy=   -115.588219843078

         CCSD(T)          HF-SCF         CCSD(T)          HF-SCF        CCSD-F12          HF-SCF        CCSD-F12          HF-SCF
   -115.58821984   -115.09791758   -115.55005189   -115.08840378   -115.59011104   -115.10056745   -115.58543503   -115.09789979
 **********************************************************************************************************************************
 Molpro calculation terminated
