
 Working directory              : /tmp/asmola/molpro.niVuUocwnI/
 Global scratch directory       : /tmp/asmola/molpro.niVuUocwnI/
 Wavefunction directory         : /home/asmola/wfu/
 Main file repository           : /tmp/asmola/molpro.niVuUocwnI/

 id        : uclcc

 Nodes                        nprocs
 vincent.theory.phys.ucl.ac.uk    1
 GA implementation: MPI file
 GA implementation (serial work in mppx): MPI file

 Using customized tuning parameters: mindgm=1; mindgv=20; mindgc=4; mindgr=1; noblas=0; minvec=7
 default implementation of scratch files=df  


 Variables initialized (1015), CPU time= 0.00 sec
 ***,Methanol Ground State Energy with extrapolating to the CBS limit using CCSD(T)-F
 memory,500,m;
 
 geometry={angstrom
 c
 o , 1, rco
 h , 2, roh, 1, acoh
 h1, 1, rch1, 2, aoch1  3  ahh1
 h2, 1, rch2, 2, aoch2, 3, ahh2
 h3, 1, rch3, 2, aoch3, 3, ahh3
 }
 
 rco= 1.4296
 roh= 0.95887
 rch1= 1.092294
 rch2= 1.092294
 rch3= 1.092294
 acoh= 107.9812
 aoch1= 110.6646
 aoch2= 110.6646
 aoch3= 110.6646
 ahh1=60.00
 ahh2=180.00
 ahh3=300.00
 
 basis=cc-pVDZ-F12
 hf
 ccsd-f12
 extrapolate,basis=cc-pVTZ-F12:cc-pVTZ-F12
 energy_ccsd = energy
 
 
 table,basissets,energr,energy-energr,energy
 head,basis,ehf,ecorr,etot
 
 basis=cc-pVDZ
 hf
 ccsd(t)
 extrapolate,basis=cc-pVTZ:cc-pVTZ
 energy_t = energy
 
 
 table,basissets,energr,energy-energr,energy
 head,basis,ehf,ecorr,etot
 
 
                                                                                 ! Output the energy
 
 Commands initialized (818), CPU time= 0.01 sec, 672 directives.
 Default parameters read. Elapsed time= 0.05 sec

 Checking input...
 Passed
1


                                         ***  PROGRAM SYSTEM MOLPRO  ***
                                       Copyright, TTI GmbH Stuttgart, 2015
                                    Version 2022.1 linked Mar  3 2022 23:20:00


 **********************************************************************************************************************************
 LABEL *   Methanol Ground State Energy with extrapolating to the CBS limit using        
  (8 PROC) 64 bit serial version                                                         DATE: 26-Jan-25          TIME: 12:54:21  
 **********************************************************************************************************************************

 SHA1:             31073afc4d8441e10870424e0d77336a33bc4286
 **********************************************************************************************************************************

 Memory per process:       500 MW
 Total memory per node:    500 MW

 GA preallocation disabled
 GA check disabled

 Variable memory set to 500.0 MW

 SETTING RCO            =         1.42960000                                  
 SETTING ROH            =         0.95887000                                  
 SETTING RCH1           =         1.09229400                                  
 SETTING RCH2           =         1.09229400                                  
 SETTING RCH3           =         1.09229400                                  
 SETTING ACOH           =       107.98120000                                  
 SETTING AOCH1          =       110.66460000                                  
 SETTING AOCH2          =       110.66460000                                  
 SETTING AOCH3          =       110.66460000                                  
 SETTING AHH1           =        60.00000000                                  
 SETTING AHH2           =       180.00000000                                  
 SETTING AHH3           =       300.00000000                                  
 SETTING BASIS          =    CC-PVDZ-F12


 Recomputing integrals since basis changed


 Using spherical harmonics

 Library entry C      S cc-pVDZ-F12          selected for orbital group  1
 Library entry C      P cc-pVDZ-F12          selected for orbital group  1
 Library entry C      D cc-pVDZ-F12          selected for orbital group  1
 Library entry O      S cc-pVDZ-F12          selected for orbital group  2
 Library entry O      P cc-pVDZ-F12          selected for orbital group  2
 Library entry O      D cc-pVDZ-F12          selected for orbital group  2
 Library entry H      S cc-pVDZ-F12          selected for orbital group  3
 Library entry H      P cc-pVDZ-F12          selected for orbital group  3


 PROGRAM * SEWARD (Integral evaluation for generally contracted gaussian basis sets)     Author: Roland Lindh, 1990

 Geometry written to block  1 of record 700

 Orientation using atomic masses  
 Molecule type: Asymmetric top
 Symmetry elements: X
 Rotational constants:      23.6333757     24.5065391    128.9114827 GHz  (calculated with average atomic masses)

 Point group  Cs  



 ATOMIC COORDINATES

 NR  ATOM    CHARGE       X              Y              Z

   1  C       6.00    0.000000000    0.021622205   -1.383678043
   2  O       8.00    0.000000000   -0.126383340    1.313817109
   3  H       1.00    0.000000000    1.563882378    1.966773405
   4  H1      1.00    1.672584827    1.025746373   -2.058106820
   5  H3      1.00   -1.672584827    1.025746373   -2.058106820
   6  H2      1.00    0.000000000   -1.866904676   -2.216820134

 Bond lengths in Bohr (Angstrom)

 1-2  2.701552468  1-4  2.064136508  1-5  2.064136508  1-6  2.064136508  2-3  1.812001689
     ( 1.429600000)     ( 1.092294000)     ( 1.092294000)     ( 1.092294000)     ( 0.958870000)

 Bond angles

  1-2-3  107.98120000   2-1-4  110.66460000   2-1-5  110.66460000   2-1-6  110.66460000

  4-1-5  108.25192757   4-1-6  108.25192757   5-1-6  108.25192757

 NUCLEAR CHARGE:                   18
 NUMBER OF PRIMITIVE AOS:         126
 NUMBER OF SYMMETRY AOS:          122
 NUMBER OF CONTRACTIONS:           96   (   65A'  +   31A"  )
 NUMBER OF INNER CORE ORBITALS:     0   (    0A'  +    0A"  )
 NUMBER OF OUTER CORE ORBITALS:     2   (    2A'  +    0A"  )
 NUMBER OF VALENCE ORBITALS:       12   (    9A'  +    3A"  )


 NUCLEAR REPULSION ENERGY   40.16373301

 Eigenvalues of metric

         1 0.104E-02 0.156E-02 0.275E-02 0.311E-02 0.324E-02 0.342E-02 0.413E-02 0.424E-02
         2 0.318E-02 0.348E-02 0.426E-02 0.144E-01 0.191E-01 0.415E-01 0.500E-01 0.905E-01


 Contracted 2-electron integrals neglected if value below      1.0D-11
 AO integral compression algorithm  1   Integral accuracy      1.0D-11

     32.768 MB (compressed) written to integral file ( 56.9%)


 NUMBER OF SORTED TWO-ELECTRON INTEGRALS:    5616601.     BUFFER LENGTH:  32768
 NUMBER OF SEGMENTS:   1  SEGMENT LENGTH:    5616601      RECORD LENGTH: 524288

 Memory used in sort:       6.17 MW

 SORT1 READ     7224997. AND WROTE     5521407. INTEGRALS IN     16 RECORDS. CPU TIME:     0.06 SEC, REAL TIME:     0.07 SEC
 SORT2 READ     5521407. AND WROTE     5616601. INTEGRALS IN    125 RECORDS. CPU TIME:     0.10 SEC, REAL TIME:     0.12 SEC

 FILE SIZES:   FILE 1:    63.1 MBYTE,  FILE 4:    67.1 MBYTE,   TOTAL:    130.2 MBYTE

 OPERATOR DM      FOR CENTER  0  COORDINATES:    0.000000    0.000000    0.000000


 **********************************************************************************************************************************
 DATASETS  * FILE   NREC   LENGTH (MB)   RECORD NAMES
              1      19       53.26       500      610      700      900      950      970     1000      129      960     1100   
                                          VAR    BASINP    GEOM    SYMINP    ZMAT    AOBASIS   BASIS     P2S    ABASIS      S 
                                         1400     1410     1200     1210     1080     1600     1650     1300     1700   
                                           T        V       H0       H01     AOSYM     SMH    MOLCAS    ERIS     OPER   

 PROGRAMS   *        TOTAL       INT
 CPU TIMES  *         1.15      1.03
 REAL TIME  *         0.88 SEC
 DISK USED  *       124.51 MB
 **********************************************************************************************************************************


 Program * Restricted Hartree-Fock

 Orbital guess generated from atomic densities. Full valence occupancy:   11   3

 Initial occupancy:   7   2

 NELEC=   18   SYM=1   MS2= 0   THRE=1.0D-08   THRD=3.2D-06   THRG=3.2D-06  HFMA2=F  DIIS_START=2   DIIS_MAX=10   DIIS_INCORE=F

 Level shifts:    0.00 (CLOSED)    0.00 (OPEN)    0.30 (GAP_MIN)

 ITER           ETOT              DE          GRAD        DDIFF     DIIS  NEXP   TIME(IT)  TIME(TOT)  DIAG
   1     -115.05184614    -115.05184614     0.00D+00     0.11D+00     0     0       0.10      0.20    start
   2     -115.07966749      -0.02782135     0.90D-02     0.13D-01     1     0       0.09      0.29    diag
   3     -115.08697864      -0.00731115     0.49D-02     0.41D-02     2     0       0.08      0.37    diag
   4     -115.08749635      -0.00051772     0.97D-03     0.12D-02     3     0       0.09      0.46    diag
   5     -115.08752897      -0.00003261     0.19D-03     0.34D-03     4     0       0.08      0.54    diag
   6     -115.08753032      -0.00000135     0.34D-04     0.87D-04     5     0       0.08      0.62    diag
   7     -115.08753037      -0.00000006     0.69D-05     0.18D-04     6     0       0.09      0.71    diag
   8     -115.08753038      -0.00000000     0.17D-05     0.35D-05     7     0       0.08      0.79    fixocc
   9     -115.08753038      -0.00000000     0.49D-06     0.90D-06     8     0       0.08      0.87    diag
  10     -115.08753038      -0.00000000     0.13D-06     0.22D-06     0     0       0.08      0.95    diag/orth

 Final occupancy:   7   2

 !RHF STATE 1.1 Energy               -115.087530375724
  RHF One-electron energy            -236.555578800437
  RHF Two-electron energy              81.304315415993
  RHF Kinetic energy                  114.901135118187
  RHF Nuclear energy                   40.163733008720
  RHF Virial quotient                  -1.001622222943

 !RHF STATE 1.1 Dipole moment           0.00000000     0.59936649    -0.42318080
 Dipole moment /Debye                   0.00000000     1.52343766    -1.07561831

 Orbital energies:

           1.1          2.1          3.1          4.1          5.1          6.1          7.1          8.1          9.1
    -20.558709   -11.273995    -1.355317    -0.926653    -0.688842    -0.596419    -0.504232     0.063854     0.073779

           1.2          2.2          3.2          4.2
     -0.618789    -0.450526     0.085960     0.214306


 HOMO      2.2    -0.450526 =     -12.2594eV
 LUMO      8.1     0.063854 =       1.7376eV
 LUMO-HOMO         0.514380 =      13.9970eV

 Orbitals saved in record  2100.2


 **********************************************************************************************************************************
 DATASETS  * FILE   NREC   LENGTH (MB)   RECORD NAMES
              1      19       53.26       500      610      700      900      950      970     1000      129      960     1100   
                                          VAR    BASINP    GEOM    SYMINP    ZMAT    AOBASIS   BASIS     P2S    ABASIS      S 
                                         1400     1410     1200     1210     1080     1600     1650     1300     1700   
                                           T        V       H0       H01     AOSYM     SMH    MOLCAS    ERIS     OPER   

              2       4        0.50       700     1000      520     2100   
                                         GEOM     BASIS   MCVARS     RHF  

 PROGRAMS   *        TOTAL    HF-SCF       INT
 CPU TIMES  *         2.12      0.96      1.03
 REAL TIME  *         1.22 SEC
 DISK USED  *       124.51 MB
 **********************************************************************************************************************************


 PROGRAM * CCSD (Closed-shell coupled cluster)     Authors: C. Hampel, H.-J. Werner, 1991, M. Deegan, P.J. Knowles, 1992

                                  CCSD-F12 implementation by  H.-J. Werner, 2007

                   Density fitting integral evaluation by F.R. Manby, 2003,2007, G. Knizia, 2010


 Basis set VDZ-F12/JKFIT generated.      Number of basis functions:   300 
 Basis set CC-PVDZ-F12/OPTRI generated.  Number of basis functions:   220 
 Basis set CC-PVDZ-F12/MP2FIT generated. Number of basis functions:   236 

 Convergence thresholds:  THRVAR = 1.00D-08  THRDEN = 1.00D-06

 Number of core orbitals:           2 (   2   0 )
 Number of closed-shell orbitals:   7 (   5   2 )
 Number of external orbitals:      87 (  58  29 )

 Molecular orbitals read from record     2100.2  Type=RHF/CANONICAL  

 MP2-F12 correlation treatment (H.-J. Werner, 2006)
 ==================================================

 Using MP2-F12 with ansatz 3C(FIX)

 Using projected zeroth-order Hamiltonian (+Z)

 FOCKRIB=T FOCKRIC=T FOCKRIP=T CABSP=T CABSA=T CABSK=T CABSF=T GBC=F EBC=F DMAT=T NOFIK=T NOPAO=1 SOLVE=-1  USEPAO=0
 EXCH_A= T EXCH_B= F EXCH_C= F EXCH_P= F

 Geminal basis:    OPTFULL  GEM_TYPE=SLATER  BETA=1.0  NGEM=6

 Optimizing Gaussian exponents for each gem_beta

 Geminal optimization for beta= 1.0000
 Weight function:   m=0, omega= 1.4646

 Augmented Hessian optimization of geminal fit. Trust ratio= 0.40000
 Convergence reached after   2 iterations. Final gradient= 8.66D-16, Step= 4.23D-06, Delta= 1.28D-09

 Alpha:                 0.19532     0.81920     2.85917     9.50073    35.69989   197.79328
 Coeff:                 0.27070     0.30552     0.18297     0.10986     0.06810     0.04224


 Symmetry turned off. Reference energy:       -115.087530375724

 All pairs explicitly correlated. Number of r12-pairs:           28

 Excluding core orbitals from MO domains

 AO(A)-basis ORBITAL           loaded. Number of functions:      96
 RI(R)-basis CC-PVDZ-F12/OPTRI loaded. Number of functions:     220
 DF-basis VDZ-F12/JKFIT        loaded. Number of functions:     300

 Screening thresholds:   THRAO=  1.00D-10  THRMO=  1.00D-09  THRPROD=  1.00D-09
                         THRSW=  1.00D-05  THROV=  1.00D-12  THRAOF12= 1.00D-08

 CPU time for Fock operators                      2.68 sec

 Construction of ABS:
 Smallest eigenvalue of S          1.55E-03  (threshold= 1.00E-08)
 Ratio eigmin/eigmax               2.66E-04  (threshold= 1.00E-09)
 Smallest eigenvalue of S kept     1.55E-03  (threshold= 1.55E-03, 0 functions deleted, 220 kept)

 Construction of CABS:
 Smallest eigenvalue of S          1.24E-05  (threshold= 1.00E-08)
 Ratio eigmin/eigmax               1.24E-05  (threshold= 1.00E-09)
 Smallest eigenvalue of S kept     1.24E-05  (threshold= 1.24E-05, 0 functions deleted, 220 kept)

 CPU time for CABS singles                        0.06 sec

 CABS-singles contribution of  -0.00525206 patched into reference energy.
 New reference energy        -115.09278244

 AO(A)-basis ORBITAL           loaded. Number of functions:      96
 RI(R)-basis CC-PVDZ-F12/OPTRI loaded. Number of functions:     220
 DF-basis CC-PVDZ-F12/MP2FIT   loaded. Number of functions:     236

 Screening thresholds:   THRAO=  1.00D-10  THRMO=  1.00D-09  THRPROD=  1.00D-09
                         THRSW=  1.00D-05  THROV=  1.00D-12  THRAOF12= 1.00D-08

