
 Working directory              : /tmp/asmola/molpro.U0VcBDe5yB/
 Global scratch directory       : /tmp/asmola/molpro.U0VcBDe5yB/
 Wavefunction directory         : /home/asmola/wfu/
 Main file repository           : /tmp/asmola/molpro.U0VcBDe5yB/

 id        : uclcc

 Nodes                        nprocs
 vincent.theory.phys.ucl.ac.uk    1
 GA implementation: MPI file
 GA implementation (serial work in mppx): MPI file

 Using customized tuning parameters: mindgm=1; mindgv=20; mindgc=4; mindgr=1; noblas=0; minvec=7
 default implementation of scratch files=df  


 Variables initialized (1015), CPU time= 0.00 sec
 ***,Methanol Ground State Energy with CCSD(T)-F12 and cc-pVTZ-F12
 memory,500,m;
 
 geometry={angstrom
 c
 o , 1, rco
 h , 2, roh, 1, acoh
 h1, 1, rch1, 2, aoch1  3  ahh1
 h2, 1, rch2, 2, aoch2, 3, ahh2
 h3, 1, rch3, 2, aoch3, 3, ahh3
 }
 
                                                ! Specify the initial values of the internal coordinates (in Angstroms and degrees)
 re1= 1.4296
 re2= 0.95887
 re3= 1.092294
 re4= 1.092294
 re5= 1.092294
 ae1= 107.9812
 ae2= 110.6646
 ae3= 110.6646
 ae4= 110.6646
 ahh1=60.00
 ahh2=180.00
 ahh3=300.00
 
 rco= 1.4296
 roh= 0.95887
 rch1= 1.092294
 rch2= 1.092294
 rch3= 1.092294
 acoh= 107.9812
 aoch1= 110.6646
 aoch2= 110.6646
 aoch3= 110.6646
 ahh1=60.00
 ahh2=180.00
 ahh3=300.00
 
                                                                                 ! Use the cc-pVTZ-F12 basis set
 basis=cc-pVTZ-F12
 
 hf
 optg, savexyz=CH3OH_equilibrium.xyz
 
                                                                                 ! Use explicitly correlated F12 methods
                                                                            ! First, MP2-F12 (useful for initial electronic energy)
 {mp2-f12}
 
                                                                        ! If desired, perform CCSD(T)-F12 for more accurate results
 {ccsd(t)-f12}
 
                                                                                 ! Output the energy
 
 Commands initialized (818), CPU time= 0.01 sec, 672 directives.
 Default parameters read. Elapsed time= 0.05 sec

 Checking input...
 Passed
1


                                         ***  PROGRAM SYSTEM MOLPRO  ***
                                       Copyright, TTI GmbH Stuttgart, 2015
                                    Version 2022.1 linked Mar  3 2022 23:20:00


 **********************************************************************************************************************************
 LABEL *   Methanol Ground State Energy with CCSD(T)-F12 and cc-pVTZ-F12                 
  (8 PROC) 64 bit serial version                                                         DATE: 27-Sep-24          TIME: 14:21:04  
 **********************************************************************************************************************************

 SHA1:             31073afc4d8441e10870424e0d77336a33bc4286
 **********************************************************************************************************************************

 Memory per process:       500 MW
 Total memory per node:    500 MW

 GA preallocation disabled
 GA check disabled

 Variable memory set to 500.0 MW

 SETTING RE1            =         1.42960000                                  
 SETTING RE2            =         0.95887000                                  
 SETTING RE3            =         1.09229400                                  
 SETTING RE4            =         1.09229400                                  
 SETTING RE5            =         1.09229400                                  
 SETTING AE1            =       107.98120000                                  
 SETTING AE2            =       110.66460000                                  
 SETTING AE3            =       110.66460000                                  
 SETTING AE4            =       110.66460000                                  
 SETTING AHH1           =        60.00000000                                  
 SETTING AHH2           =       180.00000000                                  
 SETTING AHH3           =       300.00000000                                  
 SETTING RCO            =         1.42960000                                  
 SETTING ROH            =         0.95887000                                  
 SETTING RCH1           =         1.09229400                                  
 SETTING RCH2           =         1.09229400                                  
 SETTING RCH3           =         1.09229400                                  
 SETTING ACOH           =       107.98120000                                  
 SETTING AOCH1          =       110.66460000                                  
 SETTING AOCH2          =       110.66460000                                  
 SETTING AOCH3          =       110.66460000                                  
 SETTING AHH1           =        60.00000000                                  
 SETTING AHH2           =       180.00000000                                  
 SETTING AHH3           =       300.00000000                                  
 SETTING BASIS          =    CC-PVTZ-F12


 Recomputing integrals since basis changed


 Using spherical harmonics

 Library entry C      S cc-pVTZ-F12          selected for orbital group  1
 Library entry C      P cc-pVTZ-F12          selected for orbital group  1
 Library entry C      D cc-pVTZ-F12          selected for orbital group  1
 Library entry C      F cc-pVTZ-F12          selected for orbital group  1
 Library entry O      S cc-pVTZ-F12          selected for orbital group  2
 Library entry O      P cc-pVTZ-F12          selected for orbital group  2
 Library entry O      D cc-pVTZ-F12          selected for orbital group  2
 Library entry O      F cc-pVTZ-F12          selected for orbital group  2
 Library entry H      S cc-pVTZ-F12          selected for orbital group  3
 Library entry H      P cc-pVTZ-F12          selected for orbital group  3
 Library entry H      D cc-pVTZ-F12          selected for orbital group  3


 PROGRAM * SEWARD (Integral evaluation for generally contracted gaussian basis sets)     Author: Roland Lindh, 1990

 Geometry written to block  1 of record 700

 Orientation using atomic masses  
 Molecule type: Asymmetric top
 Symmetry elements: X
 Rotational constants:      23.6333757     24.5065391    128.9114827 GHz  (calculated with average atomic masses)

 Point group  Cs  



 ATOMIC COORDINATES

 NR  ATOM    CHARGE       X              Y              Z

   1  C       6.00    0.000000000    0.021622205   -1.383678043
   2  O       8.00    0.000000000   -0.126383340    1.313817109
   3  H       1.00    0.000000000    1.563882378    1.966773405
   4  H1      1.00    1.672584827    1.025746373   -2.058106820
   5  H3      1.00   -1.672584827    1.025746373   -2.058106820
   6  H2      1.00    0.000000000   -1.866904676   -2.216820134

 Bond lengths in Bohr (Angstrom)

 1-2  2.701552468  1-4  2.064136508  1-5  2.064136508  1-6  2.064136508  2-3  1.812001689
     ( 1.429600000)     ( 1.092294000)     ( 1.092294000)     ( 1.092294000)     ( 0.958870000)

 Bond angles

  1-2-3  107.98120000   2-1-4  110.66460000   2-1-5  110.66460000   2-1-6  110.66460000

  4-1-5  108.25192757   4-1-6  108.25192757   5-1-6  108.25192757

 NUCLEAR CHARGE:                   18
 NUMBER OF PRIMITIVE AOS:         228
 NUMBER OF SYMMETRY AOS:          206
 NUMBER OF CONTRACTIONS:          178   (  114A'  +   64A"  )
 NUMBER OF INNER CORE ORBITALS:     0   (    0A'  +    0A"  )
 NUMBER OF OUTER CORE ORBITALS:     2   (    2A'  +    0A"  )
 NUMBER OF VALENCE ORBITALS:       12   (    9A'  +    3A"  )


 NUCLEAR REPULSION ENERGY   40.16373301

 Eigenvalues of metric

         1 0.891E-04 0.188E-03 0.310E-03 0.462E-03 0.495E-03 0.562E-03 0.621E-03 0.624E-03
         2 0.327E-03 0.571E-03 0.687E-03 0.180E-02 0.355E-02 0.488E-02 0.647E-02 0.854E-02


 Contracted 2-electron integrals neglected if value below      1.0D-11
 AO integral compression algorithm  1   Integral accuracy      1.0D-11

     331.350 MB (compressed) written to integral file ( 53.4%)


 NUMBER OF SORTED TWO-ELECTRON INTEGRALS:   64554730.     BUFFER LENGTH:  32768
 NUMBER OF SEGMENTS:   5  SEGMENT LENGTH:   15997996      RECORD LENGTH: 524288

 Memory used in sort:      16.56 MW

 SORT1 READ    77497885. AND WROTE    63543333. INTEGRALS IN    184 RECORDS. CPU TIME:     0.63 SEC, REAL TIME:     0.88 SEC
 SORT2 READ    63543333. AND WROTE    64554730. INTEGRALS IN   1264 RECORDS. CPU TIME:     0.71 SEC, REAL TIME:     0.90 SEC

 FILE SIZES:   FILE 1:   362.2 MBYTE,  FILE 4:   771.8 MBYTE,   TOTAL:   1134.0 MBYTE

 OPERATOR DM      FOR CENTER  0  COORDINATES:    0.000000    0.000000    0.000000


 **********************************************************************************************************************************
 DATASETS  * FILE   NREC   LENGTH (MB)   RECORD NAMES
              1      19      297.18       500      610      700      900      950      970     1000      129      960     1100   
                                          VAR    BASINP    GEOM    SYMINP    ZMAT    AOBASIS   BASIS     P2S    ABASIS      S 
                                         1400     1410     1200     1210     1080     1600     1650     1300     1700   
                                           T        V       H0       H01     AOSYM     SMH    MOLCAS    ERIS     OPER   

 PROGRAMS   *        TOTAL       INT
 CPU TIMES  *        11.88     11.78
 REAL TIME  *         5.21 SEC
 DISK USED  *         1.06 GB
 **********************************************************************************************************************************


 Program * Restricted Hartree-Fock

 Orbital guess generated from atomic densities. Full valence occupancy:   11   3

 Initial occupancy:   7   2

 NELEC=   18   SYM=1   MS2= 0   THRE=1.0D-08   THRD=1.0D-06   THRG=1.0D-06  HFMA2=F  DIIS_START=2   DIIS_MAX=10   DIIS_INCORE=F

 Level shifts:    0.00 (CLOSED)    0.00 (OPEN)    0.30 (GAP_MIN)

 ITER           ETOT              DE          GRAD        DDIFF     DIIS  NEXP   TIME(IT)  TIME(TOT)  DIAG
   1     -115.06149554    -115.06149554     0.00D+00     0.66D-01     0     0       1.15      2.29    start
   2     -115.08979165      -0.02829611     0.67D-02     0.65D-02     1     0       1.26      3.55    diag
   3     -115.09733215      -0.00754050     0.37D-02     0.22D-02     2     0       1.13      4.68    diag
   4     -115.09786395      -0.00053180     0.72D-03     0.59D-03     3     0       1.31      5.99    diag
   5     -115.09789818      -0.00003423     0.14D-03     0.17D-03     4     0       1.17      7.16    diag
   6     -115.09789972      -0.00000154     0.27D-04     0.48D-04     5     0       1.15      8.31    diag
   7     -115.09789979      -0.00000007     0.56D-05     0.12D-04     6     0       1.16      9.47    diag
   8     -115.09789979      -0.00000000     0.14D-05     0.23D-05     7     0       1.27     10.74    fixocc
   9     -115.09789979      -0.00000000     0.44D-06     0.59D-06     8     0       1.29     12.03    diag
  10     -115.09789979      -0.00000000     0.11D-06     0.14D-06     0     0       1.14     13.17    diag/orth

 Final occupancy:   7   2

 !RHF STATE 1.1 Energy               -115.097899790587
  RHF One-electron energy            -236.586741837652
  RHF Two-electron energy              81.325109038345
  RHF Kinetic energy                  114.949373064331
  RHF Nuclear energy                   40.163733008720
  RHF Virial quotient                  -1.001292105579

 !RHF STATE 1.1 Dipole moment           0.00000000     0.59375638    -0.41482786
 Dipole moment /Debye                   0.00000000     1.50917819    -1.05438726

 Orbital energies:

           1.1          2.1          3.1          4.1          5.1          6.1          7.1          8.1          9.1
    -20.556425   -11.272278    -1.354283    -0.926077    -0.688340    -0.595881    -0.504108     0.054451     0.064759

           1.2          2.2          3.2          4.2
     -0.619226    -0.451651     0.074009     0.181533


 HOMO      2.2    -0.451651 =     -12.2901eV
 LUMO      8.1     0.054451 =       1.4817eV
 LUMO-HOMO         0.506102 =      13.7717eV

 Orbitals saved in record  2100.2


 **********************************************************************************************************************************
 DATASETS  * FILE   NREC   LENGTH (MB)   RECORD NAMES
              1      19      297.18       500      610      700      900      950      970     1000      129      960     1100   
                                          VAR    BASINP    GEOM    SYMINP    ZMAT    AOBASIS   BASIS     P2S    ABASIS      S 
                                         1400     1410     1200     1210     1080     1600     1650     1300     1700   
                                           T        V       H0       H01     AOSYM     SMH    MOLCAS    ERIS     OPER   

              2       4        0.70       700     1000      520     2100   
                                         GEOM     BASIS   MCVARS     RHF  

 PROGRAMS   *        TOTAL    HF-SCF       INT
 CPU TIMES  *        25.09     13.20     11.78
 REAL TIME  *         9.31 SEC
 DISK USED  *         1.06 GB
 **********************************************************************************************************************************


 PROGRAM * OPT (Geometry optimization)     Authors: F. Eckert and H.-J. Werner


 BFGS update of hessian

 *** Long output written to logfile /scratch/vol1/asmola/Methanol/MolPro/RunMolPro/CH3OH_OPTG.log ***


 Geometry optimization using default procedure for command HF-SCF

 Geometry written to block  1 of record 700

 XYZ inputs for each point on the optimization path will be saved in files ch3oh_equilibrium_xx.xyz

 Making model hessian for Z-matrix coordinates

 Entering Rational Function Geometry Optimization

 ITER.   ENERGY(OLD)    ENERGY(NEW)      DE          GRADMAX     GRADNORM    GRADRMS     STEPMAX     STEPLEN     STEPRMS   CPU-time
   1  -115.09789979  -115.09946200    -0.00156221  0.02228198  0.03712611  0.01071739  0.03582629  0.07972093  0.00664341     77.88
   2  -115.09946200  -115.09974115    -0.00027915  0.00950008  0.01462447  0.00422172  0.02503818  0.04450930  0.00370911    155.87
   3  -115.09974115  -115.09975795    -0.00001679  0.00226814  0.00378053  0.00109134  0.00526236  0.00873366  0.00072781    233.75
   4  -115.09975795  -115.09975906    -0.00000111  0.00056953  0.00086024  0.00024833  0.00234038  0.00270102  0.00022508    310.56
   5  -115.09975906  -115.09975909    -0.00000004  0.00012708  0.00016553  0.00004778  0.00028417  0.00045669  0.00003806    386.28

 END OF GEOMETRY OPTIMIZATION.

 Optimized variables
 RCO=                 1.39824871 ANGSTROM
 ROH=                 0.93848772 ANGSTROM
 ACOH=              110.27658512 DEGREE
 RCH1=                1.08537277 ANGSTROM
 AOCH1=             111.85872243 DEGREE
 AHH1=               61.19126817 DEGREE
 RCH2=                1.07978240 ANGSTROM
 AOCH2=             107.33289828 DEGREE
 AHH2=              180.00000000 DEGREE
 RCH3=                1.08537277 ANGSTROM
 AOCH3=             111.85872243 DEGREE
 AHH3=              298.80873183 DEGREE

 **********************************************************************************************************************************

 Geometry written to block  1 of record 700

 Recomputing wavefunction for reoriented structure

 Current geometry (xyz format, in Angstrom)


 Dump information in style XYZ to ch3oh_equilibrium.xyz                                                           

    6
 HF-SCF000/CC-PVTZ-F12  ENERGY=-115.09975909
 C          0.0000000000        0.0134245438       -0.7171891759
 O          0.0000000000       -0.0630249359        0.6789680255
 H          0.0000000000        0.7982062080        1.0518488508
 H          0.8826644489        0.5202170351       -1.0941492421
 H          0.0000000000       -0.9981944540       -1.0947564257
 H         -0.8826644489        0.5202170351       -1.0941492421

 **********************************************************************************************************************************


 **********************************************************************************************************************************
 DATASETS  * FILE   NREC   LENGTH (MB)   RECORD NAMES
              1      19      297.83       500      610      700      900      950      970     1000      129      960     1100   
                                          VAR    BASINP    GEOM    SYMINP    ZMAT    AOBASIS   BASIS     P2S    ABASIS      S 
                                         1400     1410     1200     1210     1080     1600     1650     1300     1700   
                                           T        V       H0       H01     AOSYM     SMH    MOLCAS    ERIS     OPER   

              2       4        0.70       700     1000      520     2100   
                                         GEOM     BASIS   MCVARS     RHF  

 PROGRAMS   *        TOTAL      OPTG    HF-SCF       INT
 CPU TIMES  *       413.72    388.63     13.20     11.78
 REAL TIME  *        98.79 SEC
 DISK USED  *         1.06 GB
 **********************************************************************************************************************************


 PROGRAM * MP2 (Closed-shell)     Authors: C. Hampel, H.-J. Werner, 1991, M. Deegan, P.J. Knowles, 1992

                                   MP2-F12 implementation by H.-J. Werner, 2007

                   Density fitting integral evaluation by F.R. Manby, 2003,2007, G. Knizia, 2010


 Basis set VTZ-F12/JKFIT generated.      Number of basis functions:   392 
 Basis set CC-PVTZ-F12/OPTRI generated.  Number of basis functions:   314 
 Basis set CC-PVTZ-F12/MP2FIT generated. Number of basis functions:   396 

 Convergence thresholds:  THRVAR = 1.00D-12  THRDEN = 1.00D-08

 Number of core orbitals:           2 (   2   0 )
 Number of closed-shell orbitals:   7 (   5   2 )
 Number of external orbitals:     169 ( 107  62 )

 Molecular orbitals read from record     2100.2  Type=RHF/CANONICAL  

 MP2-F12 correlation treatment (H.-J. Werner, 2006)
 ==================================================

 Using MP2-F12 with ansatz 3C(FIX)

 Using projected zeroth-order Hamiltonian (+Z)

 FOCKRIB=T FOCKRIC=T FOCKRIP=T CABSP=T CABSA=T CABSK=T CABSF=T GBC=F EBC=F DMAT=T NOFIK=T NOPAO=1 SOLVE=-1  USEPAO=0
 EXCH_A= T EXCH_B= F EXCH_C= F EXCH_P= F

 Geminal basis:    OPTFULL  GEM_TYPE=SLATER  BETA=1.0  NGEM=6

 Optimizing Gaussian exponents for each gem_beta

 Geminal optimization for beta= 1.0000
 Weight function:   m=0, omega= 1.4646

 Augmented Hessian optimization of geminal fit. Trust ratio= 0.40000
 Convergence reached after   2 iterations. Final gradient= 8.66D-16, Step= 4.23D-06, Delta= 1.28D-09

 Alpha:                 0.19532     0.81920     2.85917     9.50073    35.69989   197.79328
 Coeff:                 0.27070     0.30552     0.18297     0.10986     0.06810     0.04224


 Symmetry turned off. Reference energy:       -115.099759094999

 All pairs explicitly correlated. Number of r12-pairs:           28

 Excluding core orbitals from MO domains

 AO(A)-basis ORBITAL           loaded. Number of functions:     178
 RI(R)-basis CC-PVTZ-F12/OPTRI loaded. Number of functions:     314
 DF-basis VTZ-F12/JKFIT        loaded. Number of functions:     392

 Screening thresholds:   THRAO=  1.00D-10  THRMO=  1.00D-10  THRPROD=  1.00D-10
                         THRSW=  1.00D-07  THROV=  1.00D-12  THRAOF12= 1.00D-08

 CPU time for Fock operators                      6.24 sec

 Construction of ABS:
 Smallest eigenvalue of S          4.12E-04  (threshold= 1.00E-08)
 Ratio eigmin/eigmax               5.22E-05  (threshold= 1.00E-09)
 Smallest eigenvalue of S kept     4.12E-04  (threshold= 4.12E-04, 0 functions deleted, 314 kept)

 Construction of CABS:
 Smallest eigenvalue of S          6.62E-07  (threshold= 1.00E-08)
 Ratio eigmin/eigmax               6.62E-07  (threshold= 1.00E-09)
 Smallest eigenvalue of S kept     6.62E-07  (threshold= 6.62E-07, 0 functions deleted, 314 kept)

 CPU time for CABS singles                        0.12 sec

 CABS-singles contribution of  -0.00139309 patched into reference energy.
 New reference energy        -115.10115218

 AO(A)-basis ORBITAL           loaded. Number of functions:     178
 RI(R)-basis CC-PVTZ-F12/OPTRI loaded. Number of functions:     314
 DF-basis CC-PVTZ-F12/MP2FIT   loaded. Number of functions:     396

 Screening thresholds:   THRAO=  1.00D-10  THRMO=  1.00D-10  THRPROD=  1.00D-10
                         THRSW=  1.00D-07  THROV=  1.00D-12  THRAOF12= 1.00D-08

 CPU time for 3-index integral evaluation         4.80 sec
 CPU time for first  half transformation          0.48 sec ( 5143.9 MFLOP/sec)
 CPU time for second half transformation          0.02 sec ( 3108.5 MFLOP/sec)
 CPU time for fitting                             0.11 sec (10358.4 MFLOP/sec)
 CPU time for tilde quantities                    0.13 sec (11618.9 MFLOP/sec)
 CPU time for assembly                            0.54 sec (22877.0 MFLOP/sec)
 CPU time for tranop_f12                          1.38 sec (11492.9 MFLOP/sec)
 CPU time for f12 integrals (total)              10.72 sec, Elapsed time:      5.73 sec
 CPU time for f12 matrices (total)                0.48 sec, Elapsed time:      0.07 sec

 Diagonal F12 approximation with fixed coefficients:  TSING= 0.500,  TTRIP= 0.250 (scaled by -1/beta)

 DF-MP2-F12 energy corrections:
 ==============================
 Approx.                                    Singlet             Triplet             Total
 DF-MP2-F12/3*C(DX,FIX)                -0.038450182350     -0.004247598847     -0.042697781196
 DF-MP2-F12/3*C(FIX)                   -0.036205286800     -0.003955389502     -0.040160676302
 DF-MP2-F12/3C(FIX)                    -0.036143762207     -0.004089874313     -0.040233636519

 DF-MP2-F12 correlation energies:
 ================================
 Approx.                                    Singlet             Triplet             Ecorr            Total Energy
 DF-MP2                                -0.289740375505     -0.151863702684     -0.441604078189   -115.542756260007
 DF-MP2-F12/3*C(DX,FIX)                -0.328190557855     -0.156111301531     -0.484301859386   -115.585454041203
 DF-MP2-F12/3*C(FIX)                   -0.325945662305     -0.155819092186     -0.481764754491   -115.582916936309
 DF-MP2-F12/3C(FIX)                    -0.325884137712     -0.155953576997     -0.481837714709   -115.582989896526

 SCS-DF-MP2 energies (F_SING= 1.20000  F_TRIP= 0.62222  F_PARALLEL= 0.33333):
 ============================================================================
 SCS-DF-MP2                            -0.442181421165   -115.543333602983
 SCS-DF-MP2-F12/3*C(DX,FIX)            -0.490964590378   -115.592116772196
 SCS-DF-MP2-F12/3*C(FIX)               -0.488088896571   -115.589241078389
 SCS-DF-MP2-F12/3C(FIX)                -0.488098746497   -115.589250928314

 Symmetry restored.
 Symmetry transformation completed.

 Number of N-1 electron functions:               7
 Number of N-2 electron functions:              28
 Number of singly external CSFs:               659
 Number of doubly external CSFs:            355020
 Total number of CSFs:                      355680

 Length of J-op  integral file:             103.49 MB
 Length of K-op  integral file:             127.95 MB

 Integral transformation finished. Total CPU:   2.72 sec, npass=  1  Memory used:   0.67 MW

 ITER.      SQ.NORM     CORR.ENERGY   TOTAL ENERGY   ENERGY CHANGE     VAR   MIC
   1      1.00000000    -0.44166970  -115.54282188    -0.44166970  0.00D+00   0
   2      1.11270848    -0.44166969  -115.54282188     0.00000000 -0.15D-08   0

 Solving MP2-F12 equations

   1      1.11267309    -0.48114785  -115.58230003    -0.03947816 -0.37D-04   0
   2      1.11267309    -0.48190196  -115.58305414    -0.00075411 -0.66D-12   0
   3      1.11267309    -0.48190196  -115.58305414     0.00000000  0.11D-18   0

 CPU TIME FOR ITERATIVE MP2:    0.32 SEC


 MP2-F12 energy corrections:
 ===========================
 Approx.                                    Singlet             Triplet             Total
 MP2-F12/3*C(DX,FIX)                   -0.038450182350     -0.004247598847     -0.042697781196
 MP2-F12/3*C(FIX)                      -0.036205286800     -0.003955389502     -0.040160676302
 MP2-F12/3C(FIX)                       -0.036140992127     -0.004091272420     -0.040232264546

 MP2-F12 correlation energies:
 =============================
 Approx.                                    Singlet             Triplet             Ecorr            Total Energy
 MP2                                   -0.289924624741     -0.151745068637     -0.441669693378   -115.542821875196
 MP2-F12/3*C(DX,FIX)                   -0.328374807090     -0.155992667484     -0.484367474574   -115.585519656392
 MP2-F12/3*C(FIX)                      -0.326129911541     -0.155700458139     -0.481830369680   -115.582982551498
 MP2-F12/3C(FIX)                       -0.326065616868     -0.155836341057     -0.481901957924   -115.583054139742

 SCS-MP2 energies (F_SING= 1.20000  F_TRIP= 0.62222  F_PARALLEL= 0.33333):
 =========================================================================
 SCS-MP2                               -0.442328703508   -115.543480885325
 SCS-MP2-F12/3*C(DX,FIX)               -0.491111872721   -115.592264054538
 SCS-MP2-F12/3*C(FIX)                  -0.488236178913   -115.589388360731
 SCS-MP2-F12/3C(FIX)                   -0.488243574676   -115.589395756494


  Reference energy                   -115.099759094999
  F12 singles correction               -0.001393086818

 F12 singles corrections added to reference energy

  New reference energy               -115.101152181818

  F12/3C(F) singlet correction         -0.036140992127
  F12/3C(F) triplet correction         -0.004091272420
  F12/3C(F) total correction           -0.040232264546
  MP2-F12/3C(F) singlet pair energy    -0.326065616868
  MP2-F12/3C(F) triplet pair energy    -0.155836341057
  MP2-F12/3C(F) correlation energy     -0.481901957924

 !MP2-F12/3C(F) total energy         -115.583054139742


 **********************************************************************************************************************************
 DATASETS  * FILE   NREC   LENGTH (MB)   RECORD NAMES
              1      20      303.31       500      610      700      900      950      970     1000      129      960     1100   
                                          VAR    BASINP    GEOM    SYMINP    ZMAT    AOBASIS   BASIS     P2S    ABASIS      S 
                                         1400     1410     1200     1210     1080     1600     1650     1300     1700     1380   
                                           T        V       H0       H01     AOSYM     SMH    MOLCAS    ERIS     OPER     JKOP   

              2       7        0.91       700     1000      520     2100     7360     7350     7000   
                                         GEOM     BASIS   MCVARS     RHF    F12ABS    EF12   

 PROGRAMS   *        TOTAL   MP2-F12      OPTG    HF-SCF       INT
 CPU TIMES  *       434.87     21.14    388.63     13.20     11.78
 REAL TIME  *       110.06 SEC
 DISK USED  *         1.06 GB
 **********************************************************************************************************************************


 PROGRAM * CCSD (Closed-shell coupled cluster)     Authors: C. Hampel, H.-J. Werner, 1991, M. Deegan, P.J. Knowles, 1992

                                  CCSD-F12 implementation by  H.-J. Werner, 2007

                   Density fitting integral evaluation by F.R. Manby, 2003,2007, G. Knizia, 2010



 Convergence thresholds:  THRVAR = 1.00D-12  THRDEN = 1.00D-08

 CCSD(T)     terms to be evaluated (factor= 1.000)


 Number of core orbitals:           2 (   2   0 )
 Number of closed-shell orbitals:   7 (   5   2 )
 Number of external orbitals:     169 ( 107  62 )

 Molecular orbitals read from record     2100.2  Type=RHF/CANONICAL  

 MP2-F12 correlation treatment (H.-J. Werner, 2006)
 ==================================================

 Using MP2-F12 with ansatz 3C(FIX)

 Using projected zeroth-order Hamiltonian (+Z)

 FOCKRIB=T FOCKRIC=T FOCKRIP=T CABSP=T CABSA=T CABSK=T CABSF=T GBC=F EBC=F DMAT=T NOFIK=T NOPAO=1 SOLVE=-1  USEPAO=0
 EXCH_A= T EXCH_B= F EXCH_C= F EXCH_P= F

 Geminal basis:    OPTFULL  GEM_TYPE=SLATER  BETA=1.0  NGEM=6

 Optimizing Gaussian exponents for each gem_beta

 Geminal optimization for beta= 1.0000
 Weight function:   m=0, omega= 1.4646

 Augmented Hessian optimization of geminal fit. Trust ratio= 0.40000
 Convergence reached after   2 iterations. Final gradient= 8.66D-16, Step= 4.23D-06, Delta= 1.28D-09

 Alpha:                 0.19532     0.81920     2.85917     9.50073    35.69989   197.79328
 Coeff:                 0.27070     0.30552     0.18297     0.10986     0.06810     0.04224


 Symmetry turned off. Reference energy:       -115.099759094999

 All pairs explicitly correlated. Number of r12-pairs:           28

 Excluding core orbitals from MO domains

 AO(A)-basis ORBITAL           loaded. Number of functions:     178
 RI(R)-basis CC-PVTZ-F12/OPTRI loaded. Number of functions:     314
 DF-basis VTZ-F12/JKFIT        loaded. Number of functions:     392

 Screening thresholds:   THRAO=  1.00D-10  THRMO=  1.00D-10  THRPROD=  1.00D-10
                         THRSW=  1.00D-07  THROV=  1.00D-12  THRAOF12= 1.00D-08

 CPU time for Fock operators                      6.22 sec

 Construction of ABS:
 Smallest eigenvalue of S          4.12E-04  (threshold= 1.00E-08)
 Ratio eigmin/eigmax               5.22E-05  (threshold= 1.00E-09)
 Smallest eigenvalue of S kept     4.12E-04  (threshold= 4.12E-04, 0 functions deleted, 314 kept)

 Construction of CABS:
 Smallest eigenvalue of S          6.62E-07  (threshold= 1.00E-08)
 Ratio eigmin/eigmax               6.62E-07  (threshold= 1.00E-09)
 Smallest eigenvalue of S kept     6.62E-07  (threshold= 6.62E-07, 0 functions deleted, 314 kept)

 CPU time for CABS singles                        0.10 sec

 CABS-singles contribution of  -0.00139309 patched into reference energy.
 New reference energy        -115.10115218

 AO(A)-basis ORBITAL           loaded. Number of functions:     178
 RI(R)-basis CC-PVTZ-F12/OPTRI loaded. Number of functions:     314
 DF-basis CC-PVTZ-F12/MP2FIT   loaded. Number of functions:     396

 Screening thresholds:   THRAO=  1.00D-10  THRMO=  1.00D-10  THRPROD=  1.00D-10
                         THRSW=  1.00D-07  THROV=  1.00D-12  THRAOF12= 1.00D-08

 CPU time for 3-index integral evaluation         4.66 sec
 CPU time for first  half transformation          0.57 sec ( 4331.7 MFLOP/sec)
 CPU time for second half transformation          0.04 sec ( 1554.3 MFLOP/sec)
 CPU time for sorting                             0.02 sec
 CPU time for fitting                             0.11 sec (10358.4 MFLOP/sec)
 CPU time for tilde quantities                    0.14 sec (10788.9 MFLOP/sec)
 CPU time for assembly                            0.67 sec (18438.2 MFLOP/sec)
 CPU time for tranop_f12                          1.58 sec (10038.1 MFLOP/sec)
 CPU time for f12 integrals (total)              11.29 sec, Elapsed time:      5.83 sec
 CPU time for f12 matrices (total)                0.47 sec, Elapsed time:      0.07 sec

 Diagonal F12 approximation with fixed coefficients:  TSING= 0.500,  TTRIP= 0.250 (scaled by -1/beta)

 DF-MP2-F12 energy corrections:
 ==============================
 Approx.                                    Singlet             Triplet             Total
 DF-MP2-F12/3*C(DX,FIX)                -0.038450182350     -0.004247598847     -0.042697781196
 DF-MP2-F12/3*C(FIX)                   -0.036205286800     -0.003955389502     -0.040160676302
 DF-MP2-F12/3C(FIX)                    -0.036143762207     -0.004089874313     -0.040233636519

 DF-MP2-F12 correlation energies:
 ================================
 Approx.                                    Singlet             Triplet             Ecorr            Total Energy
 DF-MP2                                -0.289740375505     -0.151863702684     -0.441604078189   -115.542756260007
 DF-MP2-F12/3*C(DX,FIX)                -0.328190557855     -0.156111301531     -0.484301859386   -115.585454041203
 DF-MP2-F12/3*C(FIX)                   -0.325945662305     -0.155819092186     -0.481764754491   -115.582916936309
 DF-MP2-F12/3C(FIX)                    -0.325884137712     -0.155953576997     -0.481837714709   -115.582989896526

 SCS-DF-MP2 energies (F_SING= 1.20000  F_TRIP= 0.62222  F_PARALLEL= 0.33333):
 ============================================================================
 SCS-DF-MP2                            -0.442181421165   -115.543333602983
 SCS-DF-MP2-F12/3*C(DX,FIX)            -0.490964590378   -115.592116772196
 SCS-DF-MP2-F12/3*C(FIX)               -0.488088896571   -115.589241078389
 SCS-DF-MP2-F12/3C(FIX)                -0.488098746497   -115.589250928314

 Symmetry restored.
 Symmetry transformation completed.

 Number of N-1 electron functions:               7
 Number of N-2 electron functions:              28
 Number of singly external CSFs:               659
 Number of doubly external CSFs:            355020
 Total number of CSFs:                      355680

 Length of J-op  integral file:             103.62 MB
 Length of K-op  integral file:             127.95 MB
 Length of 3-ext integral record:             0.00 MB

 Memory could be reduced to 24.20 Mwords without degradation in triples

 Integral transformation finished. Total CPU:   6.35 sec, npass=  1  Memory used:   7.45 MW

 Reference energy:                   -115.10115218

 Adding F12 terms to K(Cij), methodcc=6,  factor= 1.0

 ITER.      SQ.NORM     CORR.ENERGY   TOTAL ENERGY   ENERGY CHANGE        DEN1      VAR(S)    VAR(P)  DIIS     TIME  TIME/IT
   1      1.11580217    -0.45121024  -115.55236242    -0.00954054     0.00111724  0.14D-02  0.18D-02  1  1    31.06     0.93
   2      1.12292905    -0.45157058  -115.55272276    -0.00036034    -0.00879494  0.23D-04  0.21D-03  2  2    37.64     0.97
   3      1.12551085    -0.45173689  -115.55288907    -0.00016630    -0.00179940  0.13D-04  0.12D-04  3  3    44.34     0.98
   4      1.12638825    -0.45175402  -115.55290620    -0.00001714    -0.00056441  0.80D-06  0.11D-05  4  4    50.87     0.98
   5      1.12653078    -0.45175512  -115.55290730    -0.00000110    -0.00003448  0.21D-06  0.91D-07  5  5    57.48     0.99
   6      1.12656931    -0.45175292  -115.55290510     0.00000220    -0.00000364  0.32D-07  0.85D-08  6  6    64.02     0.99
   7      1.12657947    -0.45175209  -115.55290427     0.00000083    -0.00000280  0.36D-08  0.12D-08  6  1    70.61     0.99
   8      1.12658109    -0.45175215  -115.55290433    -0.00000006     0.00000031  0.59D-09  0.18D-09  6  3    76.85     0.98
   9      1.12658240    -0.45175208  -115.55290426     0.00000007    -0.00000045  0.59D-10  0.25D-10  6  2    83.37     0.99
  10      1.12658249    -0.45175209  -115.55290427    -0.00000001     0.00000007  0.70D-11  0.26D-11  6  4    89.96     0.99
  11      1.12658242    -0.45175210  -115.55290428    -0.00000000     0.00000007  0.95D-12  0.38D-12  6  5    96.51     0.99
  12      1.12658236    -0.45175210  -115.55290428    -0.00000000     0.00000003  0.13D-12  0.49D-13  6  6   102.81     0.99

 Norm of t1 vector:      0.04869906      S-energy:     0.00000001      T1 diagnostic:  0.00920326
                                                                       D1 diagnostic:  0.01936447
                                                                       D2 diagnostic:  0.13393766 (internal)

 Adding energy correction from Wij-K(Fij), methodcc=6  factor= 1.0

  CCSD correlation energy              -0.451752098540
  MP2-F12 correction (uncoupled)       -0.038699271584
  C*T doubles correction               -0.001156164003
  f12b correction                       0.007085599857


 Total CPU time for triples:     19.27 sec


 RESULTS
 =======

  Reference energy                   -115.099759094999
  F12 singles correction               -0.001393086818

 F12 singles corrections added to reference energy

  New reference energy               -115.101152181818

  F12a singlet correction              -0.035911976850
  F12a triplet correction              -0.003943458738
  F12a total correction                -0.039855435587

 F12a corrections for ansatz F12/3C(FIX) added to CCSD energy

  CCSD-F12a singlet pair energy        -0.349659996578
  CCSD-F12a triplet pair energy        -0.141947546860
  CCSD-F12a correlation energy         -0.491607534127

  Triples (T) contribution             -0.015685649810
  Total correlation energy             -0.507293183937

  CCSD-F12a total energy             -115.592759715945
  CCSD[T]-F12a energy                -115.608970239130
  CCSD-T-F12a energy                 -115.608216392481
 !CCSD(T)-F12a total energy          -115.608445365754

 F12b corrections for ansatz F12/3C(FIX) added to CCSD(T)-F12a energy

  CCSD-F12b singlet pair energy        -0.343038376003
  CCSD-F12b triplet pair energy        -0.141483567579
  CCSD-F12b correlation energy         -0.484521934270

  Triples (T) contribution             -0.015685649810
  Total correlation energy             -0.500207584079

  CCSD-F12b total energy             -115.585674116087
  CCSD[T]-F12b energy                -115.601884639273
  CCSD-T-F12b energy                 -115.601130792623
 !CCSD(T)-F12b total energy          -115.601359765897

 Timing summary (sec):

 STEP                 CPU(USER)    SYS     CPU(TOT)    WALL
 Transformation          6.45      0.13      6.58      1.13
 CCSD iterations        77.99      4.03     82.02     11.85
 Triples                19.27      0.31     19.58      3.72
 MP2-F12                18.42      0.39     18.81     10.66
 F12b energy             5.26      0.24      5.50      0.80

 Program statistics:

 Available memory in ccsd:               499999650
 Min. memory needed in ccsd:               1149135
 Max. memory used in ccsd:                 1443104
 Max. memory used in cckext:               1888566 (13 integral passes)



 **********************************************************************************************************************************
 DATASETS  * FILE   NREC   LENGTH (MB)   RECORD NAMES
              1      20      368.70       500      610      700      900      950      970     1000      129      960     1100   
                                          VAR    BASINP    GEOM    SYMINP    ZMAT    AOBASIS   BASIS     P2S    ABASIS      S 
                                         1400     1410     1200     1210     1080     1600     1650     1300     1700     1380   
                                           T        V       H0       H01     AOSYM     SMH    MOLCAS    ERIS     OPER     JKOP   

              2       7        0.91       700     1000      520     2100     7360     7350     7000   
                                         GEOM     BASIS   MCVARS     RHF    F12ABS    EF12   

 PROGRAMS   *        TOTAL   CCSD(T)   MP2-F12      OPTG    HF-SCF       INT
 CPU TIMES  *       562.29    127.42     21.14    388.63     13.20     11.78
 REAL TIME  *       138.28 SEC
 DISK USED  *         1.06 GB
 **********************************************************************************************************************************

 CCSD(T)-F12/cc-pVTZ-F12//HF/cc-pVTZ-F12 energy=   -115.601359765897

     CCSD(T)-F12         MP2-F12    OPTG(HF-SCF)          HF-SCF
   -115.60135977   -115.58305414   -115.09975909   -115.09789979
 **********************************************************************************************************************************
 Molpro calculation terminated
