
 Working directory              : /tmp/asmola/molpro.bo24r87qV9/
 Global scratch directory       : /tmp/asmola/molpro.bo24r87qV9/
 Wavefunction directory         : /home/asmola/wfu/
 Main file repository           : /tmp/asmola/molpro.bo24r87qV9/

 id        : uclcc

 Nodes                        nprocs
 vincent.theory.phys.ucl.ac.uk    1
 GA implementation: MPI file
 GA implementation (serial work in mppx): MPI file

 Using customized tuning parameters: mindgm=1; mindgv=20; mindgc=4; mindgr=1; noblas=0; minvec=7
 default implementation of scratch files=df  


 Variables initialized (1015), CPU time= 0.01 sec
 ***,Methanol Ground State Energy extrapolating to the CBS limit using CCSD(T)-F12b
 memory,500,m;
 
 geometry={angstrom
 c
 o , 1, rco
 h , 2, roh, 1, acoh
 h1, 1, rch1, 2, aoch1  3  ahh1
 h2, 1, rch2, 2, aoch2, 3, ahh2
 h3, 1, rch3, 2, aoch3, 3, ahh3
 }
 
 rco= 1.4296
 roh= 0.95887
 rch1= 1.092294
 rch2= 1.092294
 rch3= 1.092294
 acoh= 107.9812
 aoch1= 110.6646
 aoch2= 110.6646
 aoch3= 110.6646
 ahh1=60.00
 ahh2=180.00
 ahh3=300.00
 
 basis=aug-cc-pVTZ-f12
 hf
 frozen
 ccsd(t)-f12,ri_basis=cc-pV5Z/jkfit,df_basis=aug-cc-pwCV5Z/mp2fit
 extrapolate,basis=aug-cc-pVTZ-F12:aug-cc-pVQZ-F12
 
 table,basissets,energr,energy-energr,energy
 head,basis,ehf,ecorr,etot
 
 
                                                                                 ! Output the energy
 
 Commands initialized (818), CPU time= 0.00 sec, 672 directives.
 Default parameters read. Elapsed time= 0.05 sec

 Checking input...
 Passed
1


                                         ***  PROGRAM SYSTEM MOLPRO  ***
                                       Copyright, TTI GmbH Stuttgart, 2015
                                    Version 2022.1 linked Mar  3 2022 23:20:00


 **********************************************************************************************************************************
 LABEL *   Methanol Ground State Energy extrapolating to the CBS limit using CCSD        
  (14 PROC) 64 bit serial version                                                        DATE: 26-Jan-25          TIME: 15:59:06  
 **********************************************************************************************************************************

 SHA1:             31073afc4d8441e10870424e0d77336a33bc4286
 **********************************************************************************************************************************

 Memory per process:       500 MW
 Total memory per node:    500 MW

 GA preallocation disabled
 GA check disabled

 Variable memory set to 500.0 MW

 SETTING RCO            =         1.42960000                                  
 SETTING ROH            =         0.95887000                                  
 SETTING RCH1           =         1.09229400                                  
 SETTING RCH2           =         1.09229400                                  
 SETTING RCH3           =         1.09229400                                  
 SETTING ACOH           =       107.98120000                                  
 SETTING AOCH1          =       110.66460000                                  
 SETTING AOCH2          =       110.66460000                                  
 SETTING AOCH3          =       110.66460000                                  
 SETTING AHH1           =        60.00000000                                  
 SETTING AHH2           =       180.00000000                                  
 SETTING AHH3           =       300.00000000                                  
 SETTING BASIS          =    AUG-CC-PVTZ-F12


 Recomputing integrals since basis changed


 Using spherical harmonics

 Library entry C      S cc-pVTZ-F12          selected for orbital group  1
 Library entry C      P cc-pVTZ-F12          selected for orbital group  1
 Library entry C      D cc-pVTZ-F12          selected for orbital group  1
 Library entry C      D vtz-f12-diff         selected for orbital group  1
 Library entry C      F cc-pVTZ-F12          selected for orbital group  1
 Library entry C      F vtz-f12-diff         selected for orbital group  1
 Library entry O      S cc-pVTZ-F12          selected for orbital group  2
 Library entry O      P cc-pVTZ-F12          selected for orbital group  2
 Library entry O      D cc-pVTZ-F12          selected for orbital group  2
 Library entry O      D vtz-f12-diff         selected for orbital group  2
 Library entry O      F cc-pVTZ-F12          selected for orbital group  2
 Library entry O      F vtz-f12-diff         selected for orbital group  2
 Library entry H      S cc-pVTZ-F12          selected for orbital group  3
 Library entry H      P cc-pVTZ-F12          selected for orbital group  3
 Library entry H      P vtz-f12-diff         selected for orbital group  3
 Library entry H      D cc-pVTZ-F12          selected for orbital group  3
 Library entry H      D vtz-f12-diff         selected for orbital group  3


 PROGRAM * SEWARD (Integral evaluation for generally contracted gaussian basis sets)     Author: Roland Lindh, 1990

 Geometry written to block  1 of record 700

 Orientation using atomic masses  
 Molecule type: Asymmetric top
 Symmetry elements: X
 Rotational constants:      23.6333757     24.5065391    128.9114827 GHz  (calculated with average atomic masses)

 Point group  Cs  



 ATOMIC COORDINATES

 NR  ATOM    CHARGE       X              Y              Z

   1  C       6.00    0.000000000    0.021622205   -1.383678043
   2  O       8.00    0.000000000   -0.126383340    1.313817109
   3  H       1.00    0.000000000    1.563882378    1.966773405
   4  H1      1.00    1.672584827    1.025746373   -2.058106820
   5  H3      1.00   -1.672584827    1.025746373   -2.058106820
   6  H2      1.00    0.000000000   -1.866904676   -2.216820134

 Bond lengths in Bohr (Angstrom)

 1-2  2.701552468  1-4  2.064136508  1-5  2.064136508  1-6  2.064136508  2-3  1.812001689
     ( 1.429600000)     ( 1.092294000)     ( 1.092294000)     ( 1.092294000)     ( 0.958870000)

 Bond angles

  1-2-3  107.98120000   2-1-4  110.66460000   2-1-5  110.66460000   2-1-6  110.66460000

  4-1-5  108.25192757   4-1-6  108.25192757   5-1-6  108.25192757

 NUCLEAR CHARGE:                   18
 NUMBER OF PRIMITIVE AOS:         296
 NUMBER OF SYMMETRY AOS:          262
 NUMBER OF CONTRACTIONS:          234   (  146A'  +   88A"  )
 NUMBER OF INNER CORE ORBITALS:     0   (    0A'  +    0A"  )
 NUMBER OF OUTER CORE ORBITALS:     2   (    2A'  +    0A"  )
 NUMBER OF VALENCE ORBITALS:       12   (    9A'  +    3A"  )


 NUCLEAR REPULSION ENERGY   40.16373301

 Eigenvalues of metric

         1 0.273E-04 0.411E-04 0.464E-04 0.746E-04 0.145E-03 0.244E-03 0.275E-03 0.356E-03
         2 0.332E-04 0.277E-03 0.483E-03 0.659E-03 0.953E-03 0.111E-02 0.135E-02 0.177E-02


 Contracted 2-electron integrals neglected if value below      1.0D-12
 AO integral compression algorithm  1   Integral accuracy      1.0D-12

     1183.056 MB (compressed) written to integral file ( 63.5%)


 NUMBER OF SORTED TWO-ELECTRON INTEGRALS:  191319820.     BUFFER LENGTH:  32768
 NUMBER OF SEGMENTS:  12  SEGMENT LENGTH:   15999921      RECORD LENGTH: 524288

 Memory used in sort:      16.56 MW

 SORT1 READ   232957557. AND WROTE   188971062. INTEGRALS IN    545 RECORDS. CPU TIME:     1.97 SEC, REAL TIME:     2.83 SEC
 SORT2 READ   188971062. AND WROTE   191319820. INTEGRALS IN   4513 RECORDS. CPU TIME:     2.06 SEC, REAL TIME:     2.63 SEC

 FILE SIZES:   FILE 1:  1214.5 MBYTE,  FILE 4:  2285.9 MBYTE,   TOTAL:   3500.5 MBYTE

 OPERATOR DM      FOR CENTER  0  COORDINATES:    0.000000    0.000000    0.000000


 **********************************************************************************************************************************
 DATASETS  * FILE   NREC   LENGTH (MB)   RECORD NAMES
              1      19      983.65       500      610      700      900      950      970     1000      129      960     1100   
                                          VAR    BASINP    GEOM    SYMINP    ZMAT    AOBASIS   BASIS     P2S    ABASIS      S 
                                         1400     1410     1200     1210     1080     1600     1650     1300     1700   
                                           T        V       H0       H01     AOSYM     SMH    MOLCAS    ERIS     OPER   

 PROGRAMS   *        TOTAL       INT
 CPU TIMES  *        50.05     49.95
 REAL TIME  *        14.18 SEC
 DISK USED  *         3.26 GB
 **********************************************************************************************************************************


 Program * Restricted Hartree-Fock

 Orbital guess generated from atomic densities. Full valence occupancy:   11   3

 Initial occupancy:   7   2

 NELEC=   18   SYM=1   MS2= 0   THRE=1.0D-08   THRD=3.2D-06   THRG=3.2D-06  HFMA2=F  DIIS_START=2   DIIS_MAX=10   DIIS_INCORE=F

 Level shifts:    0.00 (CLOSED)    0.00 (OPEN)    0.30 (GAP_MIN)

 ITER           ETOT              DE          GRAD        DDIFF     DIIS  NEXP   TIME(IT)  TIME(TOT)  DIAG
   1     -115.06159340    -115.06159340     0.00D+00     0.52D-01     0     0       6.86     13.64    start
   2     -115.08990197      -0.02830857     0.58D-02     0.53D-02     1     0       7.30     20.94    diag
   3     -115.09744947      -0.00754750     0.32D-02     0.17D-02     2     0       6.93     27.87    diag
   4     -115.09798204      -0.00053257     0.63D-03     0.47D-03     3     0       6.83     34.70    diag
   5     -115.09801632      -0.00003429     0.13D-03     0.11D-03     4     0       6.82     41.52    diag
   6     -115.09801787      -0.00000155     0.24D-04     0.23D-04     5     0       7.61     49.13    diag
   7     -115.09801794      -0.00000007     0.49D-05     0.54D-05     6     0       6.82     55.95    diag
   8     -115.09801795      -0.00000000     0.12D-05     0.14D-05     7     0       6.82     62.77    fixocc
   9     -115.09801795      -0.00000000     0.39D-06     0.36D-06     0     0       6.79     69.56    diag

 Final occupancy:   7   2

 !RHF STATE 1.1 Energy               -115.098017948968
  RHF One-electron energy            -236.587666106259
  RHF Two-electron energy              81.325915148571
  RHF Kinetic energy                  114.949109672257
  RHF Nuclear energy                   40.163733008720
  RHF Virial quotient                  -1.001295427839

 !RHF STATE 1.1 Dipole moment           0.00000000     0.59190874    -0.41133343
 Dipole moment /Debye                   0.00000000     1.50448196    -1.04550531

 Orbital energies:

           1.1          2.1          3.1          4.1          5.1          6.1          7.1          8.1          9.1
    -20.556369   -11.272240    -1.354228    -0.926024    -0.688304    -0.595840    -0.504083     0.045075     0.048985

           1.2          2.2          3.2          4.2
     -0.619177    -0.451613     0.056062     0.125954


 HOMO      2.2    -0.451613 =     -12.2890eV
 LUMO      8.1     0.045075 =       1.2266eV
 LUMO-HOMO         0.496688 =      13.5156eV

 Orbitals saved in record  2100.2


 **********************************************************************************************************************************
 DATASETS  * FILE   NREC   LENGTH (MB)   RECORD NAMES
              1      19      983.65       500      610      700      900      950      970     1000      129      960     1100   
                                          VAR    BASINP    GEOM    SYMINP    ZMAT    AOBASIS   BASIS     P2S    ABASIS      S 
                                         1400     1410     1200     1210     1080     1600     1650     1300     1700   
                                           T        V       H0       H01     AOSYM     SMH    MOLCAS    ERIS     OPER   

              2       4        0.89       700     1000      520     2100   
                                         GEOM     BASIS   MCVARS     RHF  

 PROGRAMS   *        TOTAL    HF-SCF       INT
 CPU TIMES  *       119.64     69.59     49.95
 REAL TIME  *        27.68 SEC
 DISK USED  *         3.26 GB
 **********************************************************************************************************************************


 PROGRAM * CCSD (Closed-shell coupled cluster)     Authors: C. Hampel, H.-J. Werner, 1991, M. Deegan, P.J. Knowles, 1992

                                  CCSD-F12 implementation by  H.-J. Werner, 2007

                   Density fitting integral evaluation by F.R. Manby, 2003,2007, G. Knizia, 2010


 Basis set VTZ-F12/JKFIT generated.      Number of basis functions:   392 
 Basis set V5Z/JKFIT generated.          Number of basis functions:   624 
 Basis set AUG-CC-PWCV5Z/MP2FIT generated. Number of basis functions:   1164 

 Convergence thresholds:  THRVAR = 1.00D-08  THRDEN = 1.00D-06

 CCSD(T)     terms to be evaluated (factor= 1.000)


 Number of core orbitals:           2 (   2   0 )
 Number of closed-shell orbitals:   7 (   5   2 )
 Number of external orbitals:     225 ( 139  86 )

 Molecular orbitals read from record     2100.2  Type=RHF/CANONICAL  

 MP2-F12 correlation treatment (H.-J. Werner, 2006)
 ==================================================

 Using MP2-F12 with ansatz 3C(FIX)

 Using projected zeroth-order Hamiltonian (+Z)

 FOCKRIB=T FOCKRIC=T FOCKRIP=T CABSP=T CABSA=T CABSK=T CABSF=T GBC=F EBC=F DMAT=T NOFIK=T NOPAO=1 SOLVE=-1  USEPAO=0
 EXCH_A= T EXCH_B= F EXCH_C= F EXCH_P= F

 Geminal basis:    OPTFULL  GEM_TYPE=SLATER  BETA=1.0  NGEM=6

 Optimizing Gaussian exponents for each gem_beta

 Geminal optimization for beta= 1.0000
 Weight function:   m=0, omega= 1.4646

 Augmented Hessian optimization of geminal fit. Trust ratio= 0.40000
 Convergence reached after   2 iterations. Final gradient= 8.66D-16, Step= 4.23D-06, Delta= 1.28D-09

 Alpha:                 0.19532     0.81920     2.85917     9.50073    35.69989   197.79328
 Coeff:                 0.27070     0.30552     0.18297     0.10986     0.06810     0.04224


 Symmetry turned off. Reference energy:       -115.098017948968

 All pairs explicitly correlated. Number of r12-pairs:           28

 Excluding core orbitals from MO domains

 AO(A)-basis ORBITAL           loaded. Number of functions:     234
 RI(R)-basis V5Z/JKFIT         loaded. Number of functions:     624
 DF-basis VTZ-F12/JKFIT        loaded. Number of functions:     392

 Screening thresholds:   THRAO=  1.00D-10  THRMO=  1.00D-09  THRPROD=  1.00D-09
                         THRSW=  1.00D-05  THROV=  1.00D-12  THRAOF12= 1.00D-08

 CPU time for Fock operators                     18.13 sec

 Construction of ABS:
 Smallest eigenvalue of S          1.86E-05  (threshold= 1.00E-08)
 Ratio eigmin/eigmax               2.53E-06  (threshold= 1.00E-09)
 Smallest eigenvalue of S kept     1.86E-05  (threshold= 1.86E-05, 0 functions deleted, 624 kept)

 Construction of CABS:
 Smallest eigenvalue of S          6.90E-09  (threshold= 1.00E-08)
 Ratio eigmin/eigmax               6.90E-09  (threshold= 1.00E-09)
 Smallest eigenvalue of S kept     2.44E-08  (threshold= 2.44E-08, 1 functions deleted, 623 kept)

 CPU time for CABS singles                        0.44 sec

 CABS-singles contribution of  -0.00215067 patched into reference energy.
 New reference energy        -115.10016862

 AO(A)-basis ORBITAL           loaded. Number of functions:     234
 RI(R)-basis V5Z/JKFIT         loaded. Number of functions:     624
 DF-basis AUG-CC-PWCV5Z/MP2FIT loaded. Number of functions:    1164

 Screening thresholds:   THRAO=  1.00D-10  THRMO=  1.00D-09  THRPROD=  1.00D-09
                         THRSW=  1.00D-05  THROV=  1.00D-12  THRAOF12= 1.00D-08

 CPU time for 3-index integral evaluation        31.48 sec
 CPU time for first  half transformation          3.88 sec ( 4062.9 MFLOP/sec)
 CPU time for second half transformation          0.02 sec (12011.8 MFLOP/sec)
 CPU time for sorting                             0.04 sec
 CPU time for fitting                             0.58 sec (28943.4 MFLOP/sec)
 CPU time for tilde quantities                    0.75 sec (28073.4 MFLOP/sec)
 CPU time for assembly                            2.60 sec (39469.1 MFLOP/sec)
 CPU time for tranop_f12                          4.54 sec (16302.6 MFLOP/sec)
 CPU time for f12 integrals (total)              60.64 sec, Elapsed time:     29.97 sec
 CPU time for f12 matrices (total)                1.04 sec, Elapsed time:      0.16 sec

 Diagonal F12 approximation with fixed coefficients:  TSING= 0.500,  TTRIP= 0.250 (scaled by -1/beta)

 DF-MP2-F12 energy corrections:
 ==============================
 Approx.                                    Singlet             Triplet             Total
 DF-MP2-F12/3*C(DX,FIX)                -0.037465519081     -0.004163508862     -0.041629027942
 DF-MP2-F12/3*C(FIX)                   -0.035242476015     -0.003903339885     -0.039145815900
 DF-MP2-F12/3C(FIX)                    -0.035168943919     -0.004054509781     -0.039223453700

 DF-MP2-F12 correlation energies:
 ================================
 Approx.                                    Singlet             Triplet             Ecorr            Total Energy
 DF-MP2                                -0.292206148831     -0.152363323593     -0.444569472423   -115.544738093884
 DF-MP2-F12/3*C(DX,FIX)                -0.329671667912     -0.156526832454     -0.486198500366   -115.586367121827
 DF-MP2-F12/3*C(FIX)                   -0.327448624846     -0.156266663477     -0.483715288323   -115.583883909784
 DF-MP2-F12/3C(FIX)                    -0.327375092749     -0.156417833374     -0.483792926123   -115.583961547584

 SCS-DF-MP2 energies (F_SING= 1.20000  F_TRIP= 0.62222  F_PARALLEL= 0.33333):
 ============================================================================
 SCS-DF-MP2                            -0.445451224388   -115.545619845849
 SCS-DF-MP2-F12/3*C(DX,FIX)            -0.493000475021   -115.593169096482
 SCS-DF-MP2-F12/3*C(FIX)               -0.490170940423   -115.590339561884
 SCS-DF-MP2-F12/3C(FIX)                -0.490176763176   -115.590345384637

 Symmetry restored.
 Symmetry transformation completed.

 Number of N-1 electron functions:               7
 Number of N-2 electron functions:              28
 Number of singly external CSFs:               867
 Number of doubly external CSFs:            627264
 Total number of CSFs:                      628132

 Length of J-op  integral file:             279.61 MB
 Length of K-op  integral file:             317.20 MB
 Length of 3-ext integral record:             0.00 MB

 Memory could be reduced to 56.27 Mwords without degradation in triples

 Integral transformation finished. Total CPU:  27.03 sec, npass=  1  Memory used:  17.06 MW

 Reference energy:                   -115.10016862

 Adding F12 terms to K(Cij), methodcc=6,  factor= 1.0

 ITER.      SQ.NORM     CORR.ENERGY   TOTAL ENERGY   ENERGY CHANGE        DEN1      VAR(S)    VAR(P)  DIIS     TIME  TIME/IT
   1      1.11819742    -0.45383077  -115.55399939    -0.00926060     0.00184084  0.15D-02  0.19D-02  1  1   144.40     3.56
   2      1.12571085    -0.45421079  -115.55437941    -0.00038002    -0.00912418  0.25D-04  0.24D-03  2  2   181.14     3.65
   3      1.12850223    -0.45439186  -115.55456048    -0.00018107    -0.00189736  0.16D-04  0.14D-04  3  3   214.54     3.57
   4      1.12947127    -0.45440904  -115.55457766    -0.00001717    -0.00060713  0.95D-06  0.13D-05  4  4   251.37     3.64
   5      1.12963734    -0.45441078  -115.55457940    -0.00000174    -0.00004159  0.28D-06  0.12D-06  5  5   286.25     3.62
   6      1.12968413    -0.45440842  -115.55457705     0.00000236    -0.00000442  0.45D-07  0.13D-07  6  6   323.13     3.66
   7      1.12969720    -0.45440749  -115.55457612     0.00000093    -0.00000326  0.56D-08  0.22D-08  6  1   361.22     3.70
   8      1.12969941    -0.45440748  -115.55457610     0.00000002     0.00000025  0.11D-08  0.35D-09  6  3   395.51     3.68

 Norm of t1 vector:      0.05065301      S-energy:    -0.00000044      T1 diagnostic:  0.00957252
                                                                       D1 diagnostic:  0.02034202
                                                                       D2 diagnostic:  0.13699883 (internal)

 Adding energy correction from Wij-K(Fij), methodcc=6  factor= 1.0

  CCSD correlation energy              -0.454407477410
  MP2-F12 correction (uncoupled)       -0.037778166807
  C*T doubles correction               -0.001095450345
  f12b correction                       0.007018047655


 Total CPU time for triples:     79.59 sec


 RESULTS
 =======

  Reference energy                   -115.098017948968
  F12 singles correction               -0.002150672493

 F12 singles corrections added to reference energy

  New reference energy               -115.100168621461

  F12a singlet correction              -0.034974942049
  F12a triplet correction              -0.003898675103
  F12a total correction                -0.038873617153

 F12a corrections for ansatz F12/3C(FIX) added to CCSD energy

  CCSD-F12a singlet pair energy        -0.351308361177
  CCSD-F12a triplet pair energy        -0.141972291611
  CCSD-F12a correlation energy         -0.493281094562

  Triples (T) contribution             -0.016174289552
  Total correlation energy             -0.509455384115

  CCSD-F12a total energy             -115.593449716023
  CCSD[T]-F12a energy                -115.610187290000
  CCSD-T-F12a energy                 -115.609376104912
 !CCSD(T)-F12a total energy          -115.609624005576

 F12b corrections for ansatz F12/3C(FIX) added to CCSD(T)-F12a energy

  CCSD-F12b singlet pair energy        -0.344733031950
  CCSD-F12b triplet pair energy        -0.141529573183
  CCSD-F12b correlation energy         -0.486263046907

  Triples (T) contribution             -0.016174289552
  Total correlation energy             -0.502437336460

  CCSD-F12b total energy             -115.586431668368
  CCSD[T]-F12b energy                -115.603169242345
  CCSD-T-F12b energy                 -115.602358057257
 !CCSD(T)-F12b total energy          -115.602605957921

 Timing summary (sec):

 STEP                 CPU(USER)    SYS     CPU(TOT)    WALL
 Transformation         27.50      0.78     28.28      3.66
 CCSD iterations       287.07     20.12    307.19     29.49
 Triples                79.59      0.84     80.43     10.56
 MP2-F12                81.18      1.21     82.39     46.46
 F12b energy            31.47      2.25     33.72      3.28

 Program statistics:

 Available memory in ccsd:               499999657
 Min. memory needed in ccsd:               2002999
 Max. memory used in ccsd:                 2527160
 Max. memory used in cckext:               3690607 ( 9 integral passes)



 **********************************************************************************************************************************
 DATASETS  * FILE   NREC   LENGTH (MB)   RECORD NAMES
              1      20     1146.73       500      610      700      900      950      970     1000      129      960     1100   
                                          VAR    BASINP    GEOM    SYMINP    ZMAT    AOBASIS   BASIS     P2S    ABASIS      S 
                                         1400     1410     1200     1210     1080     1600     1650     1300     1700     1380   
                                           T        V       H0       H01     AOSYM     SMH    MOLCAS    ERIS     OPER     JKOP   

              2       6        1.23       700     1000      520     2100     7360     7350   
                                         GEOM     BASIS   MCVARS     RHF    F12ABS    EF12   

 PROGRAMS   *        TOTAL   CCSD(T)    HF-SCF       INT
 CPU TIMES  *       626.51    506.85     69.59     49.95
 REAL TIME  *       121.23 SEC
 DISK USED  *         3.26 GB
 **********************************************************************************************************************************


 Extrapolating  CCSD(T)-F12  energy with  basissets AUG-CC-PVTZ-F12 AUG-CC-PVQZ-F12

 Running default procedure: HF-SCF000  CCSD(T)-F12

 *** Long output written to logfile /scratch/vol1/asmola/Methanol/MolPro/RunMolPro/CH3OH_Grid_CBS-Extrapolation-5.log ***

 Evaluating energy using basis set AUG-CC-PVQZ-F12

 Extrapolating correlation energy using function n^{-X} with X= 3.0

 L=3  E=    -0.50945538  EFIT=    -0.50945538
 L=4  E=    -0.51075273  EFIT=    -0.51075273

 E(CBS)=    -0.51169944  Coefficients:    0.0606

 Extrapolating correlation energy using function n^{-X} with X= 3.0

 L=3  E=    -0.49328109  EFIT=    -0.49328109
 L=4  E=    -0.49357694  EFIT=    -0.49357694

 E(CBS)=    -0.49379282  Coefficients:    0.0138

 BASIS           EREF            ECORRC          ECORR           ETOTC           ETOT
 AUG-CC-P   -115.10016862     -0.49328109     -0.50945538   -115.59344972   -115.60962401
 AUG-CC-P   -115.10074272     -0.49357694     -0.51075273   -115.59431966   -115.61149545
 CBS        -115.10074272     -0.49379282     -0.51169944   -115.59453554   -115.61244216



 **********************************************************************************************************************************
 DATASETS  * FILE   NREC   LENGTH (MB)   RECORD NAMES
              1      20     9247.86       500      610      700      900      950      970     1001      129      960     1100   
                                          VAR    BASINP    GEOM    SYMINP    ZMAT    AOBASIS   BASIS     P2S    ABASIS      S 
                                         1400     1410     1200     1210     1080     1600     1650     1300     1700     1380   
                                           T        V       H0       H01     AOSYM     SMH    MOLCAS    ERIS     OPER     JKOP   

              2       9        3.80       700     1000      520     2100     7360     7350     1001     2101     7360(1)
                                         GEOM     BASIS   MCVARS     RHF    F12ABS    EF12     BASIS     RHF    F12ABS    

 PROGRAMS   *        TOTAL  EXTRAPOL    HF-SCF       INT   CCSD(T)    HF-SCF       INT
 CPU TIMES  *      5071.29   3214.01    603.84    626.91    506.85     69.59     49.95
 REAL TIME  *       787.99 SEC
 DISK USED  *        29.34 GB
 **********************************************************************************************************************************


 BASIS                  EHF          ECORR           ETOT
 AUG-CC-PVTZ-F12   -115.1001686   -0.50945538   -115.6096240
 AUG-CC-PVQZ-F12   -115.1007427   -0.51075273   -115.6114954
 CBS               -115.1007427   -0.51169944   -115.6124422
                                                  

 CCSD(T)-F12/aug-cc-pVTZ-F12:aug-cc-pVQZ-F12 energy=   -115.612442158298

     CCSD(T)-F12          HF-SCF     CCSD(T)-F12          HF-SCF
   -115.60728946   -115.10058440   -115.60260596   -115.09801795
 **********************************************************************************************************************************
 Molpro calculation terminated
