
 Working directory              : /tmp/asmola/molpro.OVIBeZVXFY/
 Global scratch directory       : /tmp/asmola/molpro.OVIBeZVXFY/
 Wavefunction directory         : /home/asmola/wfu/
 Main file repository           : /tmp/asmola/molpro.OVIBeZVXFY/

 id        : uclcc

 Nodes                        nprocs
 vincent.theory.phys.ucl.ac.uk    1
 GA implementation: MPI file
 GA implementation (serial work in mppx): MPI file

 Using customized tuning parameters: mindgm=1; mindgv=20; mindgc=4; mindgr=1; noblas=0; minvec=7
 default implementation of scratch files=df  


 Variables initialized (1015), CPU time= 0.01 sec
 ***,Methanol Ground State Energy extrapolating to the CBS limit using CCSD(T)-F12b
 memory,500,m;
 
 geometry={angstrom
 c
 o , 1, rco
 h , 2, roh, 1, acoh
 h1, 1, rch1, 2, aoch1  3  ahh1
 h2, 1, rch2, 2, aoch2, 3, ahh2
 h3, 1, rch3, 2, aoch3, 3, ahh3
 }
 
 rco= 1.4296
 roh= 0.95887
 rch1= 1.092294
 rch2= 1.092294
 rch3= 1.092294
 acoh= 107.9812
 aoch1= 110.6646
 aoch2= 110.6646
 aoch3= 110.6646
 ahh1=60.00
 ahh2=180.00
 ahh3=300.00
 
 basis=aug-cc-pVDZ-f12
 hf
 frozen
 ccsd(t)-f12,ri_basis=cc-pV5Z/jkfit,df_basis=aug-cc-pwCV5Z/mp2fit
 E_ccsd = ENERGC
 E_t = ENERGY - ENERGC
 table,xxx,rco,roh,rch1,rch2,rch3,acoh,aoch1,aoch2,aoch3,ahh1,ahh2,ahh3,E
 
 
                                                                                 ! Output the energy
 
 Commands initialized (818), CPU time= 0.00 sec, 672 directives.
 Default parameters read. Elapsed time= 0.05 sec

 Checking input...
 Passed
1


                                         ***  PROGRAM SYSTEM MOLPRO  ***
                                       Copyright, TTI GmbH Stuttgart, 2015
                                    Version 2022.1 linked Mar  3 2022 23:20:00


 **********************************************************************************************************************************
 LABEL *   Methanol Ground State Energy extrapolating to the CBS limit using CCSD        
  (14 PROC) 64 bit serial version                                                        DATE: 27-Jan-25          TIME: 13:49:00  
 **********************************************************************************************************************************

 SHA1:             31073afc4d8441e10870424e0d77336a33bc4286
 **********************************************************************************************************************************

 Memory per process:       500 MW
 Total memory per node:    500 MW

 GA preallocation disabled
 GA check disabled

 Variable memory set to 500.0 MW

 SETTING RCO            =         1.42960000                                  
 SETTING ROH            =         0.95887000                                  
 SETTING RCH1           =         1.09229400                                  
 SETTING RCH2           =         1.09229400                                  
 SETTING RCH3           =         1.09229400                                  
 SETTING ACOH           =       107.98120000                                  
 SETTING AOCH1          =       110.66460000                                  
 SETTING AOCH2          =       110.66460000                                  
 SETTING AOCH3          =       110.66460000                                  
 SETTING AHH1           =        60.00000000                                  
 SETTING AHH2           =       180.00000000                                  
 SETTING AHH3           =       300.00000000                                  
 SETTING BASIS          =    AUG-CC-PVDZ-F12


 Recomputing integrals since basis changed


 Using spherical harmonics

 Library entry C      S cc-pVDZ-F12          selected for orbital group  1
 Library entry C      P cc-pVDZ-F12          selected for orbital group  1
 Library entry C      D cc-pVDZ-F12          selected for orbital group  1
 Library entry C      D vdz-f12-diff         selected for orbital group  1
 Library entry O      S cc-pVDZ-F12          selected for orbital group  2
 Library entry O      P cc-pVDZ-F12          selected for orbital group  2
 Library entry O      D cc-pVDZ-F12          selected for orbital group  2
 Library entry O      D vdz-f12-diff         selected for orbital group  2
 Library entry H      S cc-pVDZ-F12          selected for orbital group  3
 Library entry H      P cc-pVDZ-F12          selected for orbital group  3
 Library entry H      P vdz-f12-diff         selected for orbital group  3


 PROGRAM * SEWARD (Integral evaluation for generally contracted gaussian basis sets)     Author: Roland Lindh, 1990

 Geometry written to block  1 of record 700

 Orientation using atomic masses  
 Molecule type: Asymmetric top
 Symmetry elements: X
 Rotational constants:      23.6333757     24.5065391    128.9114827 GHz  (calculated with average atomic masses)

 Point group  Cs  



 ATOMIC COORDINATES

 NR  ATOM    CHARGE       X              Y              Z

   1  C       6.00    0.000000000    0.021622205   -1.383678043
   2  O       8.00    0.000000000   -0.126383340    1.313817109
   3  H       1.00    0.000000000    1.563882378    1.966773405
   4  H1      1.00    1.672584827    1.025746373   -2.058106820
   5  H3      1.00   -1.672584827    1.025746373   -2.058106820
   6  H2      1.00    0.000000000   -1.866904676   -2.216820134

 Bond lengths in Bohr (Angstrom)

 1-2  2.701552468  1-4  2.064136508  1-5  2.064136508  1-6  2.064136508  2-3  1.812001689
     ( 1.429600000)     ( 1.092294000)     ( 1.092294000)     ( 1.092294000)     ( 0.958870000)

 Bond angles

  1-2-3  107.98120000   2-1-4  110.66460000   2-1-5  110.66460000   2-1-6  110.66460000

  4-1-5  108.25192757   4-1-6  108.25192757   5-1-6  108.25192757

 NUCLEAR CHARGE:                   18
 NUMBER OF PRIMITIVE AOS:         150
 NUMBER OF SYMMETRY AOS:          144
 NUMBER OF CONTRACTIONS:          118   (   78A'  +   40A"  )
 NUMBER OF INNER CORE ORBITALS:     0   (    0A'  +    0A"  )
 NUMBER OF OUTER CORE ORBITALS:     2   (    2A'  +    0A"  )
 NUMBER OF VALENCE ORBITALS:       12   (    9A'  +    3A"  )


 NUCLEAR REPULSION ENERGY   40.16373301

 Eigenvalues of metric

         1 0.182E-03 0.291E-03 0.549E-03 0.120E-02 0.132E-02 0.311E-02 0.314E-02 0.335E-02
         2 0.267E-03 0.316E-02 0.373E-02 0.415E-02 0.102E-01 0.134E-01 0.154E-01 0.239E-01


 Contracted 2-electron integrals neglected if value below      1.0D-11
 AO integral compression algorithm  1   Integral accuracy      1.0D-11

     74.973 MB (compressed) written to integral file ( 56.1%)


 NUMBER OF SORTED TWO-ELECTRON INTEGRALS:   12663691.     BUFFER LENGTH:  32768
 NUMBER OF SEGMENTS:   1  SEGMENT LENGTH:   12663691      RECORD LENGTH: 524288

 Memory used in sort:      13.22 MW

 SORT1 READ    16750848. AND WROTE    12481576. INTEGRALS IN     36 RECORDS. CPU TIME:     0.11 SEC, REAL TIME:     0.16 SEC
 SORT2 READ    12481576. AND WROTE    12663691. INTEGRALS IN    286 RECORDS. CPU TIME:     0.19 SEC, REAL TIME:     0.23 SEC

 FILE SIZES:   FILE 1:   105.4 MBYTE,  FILE 4:   151.0 MBYTE,   TOTAL:    256.4 MBYTE

 OPERATOR DM      FOR CENTER  0  COORDINATES:    0.000000    0.000000    0.000000


 **********************************************************************************************************************************
 DATASETS  * FILE   NREC   LENGTH (MB)   RECORD NAMES
              1      19       83.80       500      610      700      900      950      970     1000      129      960     1100   
                                          VAR    BASINP    GEOM    SYMINP    ZMAT    AOBASIS   BASIS     P2S    ABASIS      S 
                                         1400     1410     1200     1210     1080     1600     1650     1300     1700   
                                           T        V       H0       H01     AOSYM     SMH    MOLCAS    ERIS     OPER   

 PROGRAMS   *        TOTAL       INT
 CPU TIMES  *         2.70      2.60
 REAL TIME  *         2.16 SEC
 DISK USED  *       244.88 MB
 **********************************************************************************************************************************


 Program * Restricted Hartree-Fock

 Orbital guess generated from atomic densities. Full valence occupancy:   11   3

 Initial occupancy:   7   2

 NELEC=   18   SYM=1   MS2= 0   THRE=1.0D-08   THRD=3.2D-06   THRG=3.2D-06  HFMA2=F  DIIS_START=2   DIIS_MAX=10   DIIS_INCORE=F

 Level shifts:    0.00 (CLOSED)    0.00 (OPEN)    0.30 (GAP_MIN)

 ITER           ETOT              DE          GRAD        DDIFF     DIIS  NEXP   TIME(IT)  TIME(TOT)  DIAG
   1     -115.05208651    -115.05208651     0.00D+00     0.95D-01     0     0       0.16      0.34    start
   2     -115.07992279      -0.02783628     0.81D-02     0.11D-01     1     0       0.21      0.55    diag
   3     -115.08726188      -0.00733908     0.45D-02     0.35D-02     2     0       0.15      0.70    diag
   4     -115.08778184      -0.00051997     0.87D-03     0.10D-02     3     0       0.13      0.83    diag
   5     -115.08781467      -0.00003282     0.17D-03     0.26D-03     4     0       0.14      0.97    diag
   6     -115.08781607      -0.00000140     0.31D-04     0.55D-04     5     0       0.21      1.18    diag
   7     -115.08781613      -0.00000006     0.64D-05     0.12D-04     6     0       0.13      1.31    diag
   8     -115.08781613      -0.00000000     0.16D-05     0.28D-05     7     0       0.14      1.45    fixocc
   9     -115.08781613      -0.00000000     0.44D-06     0.61D-06     0     0       0.15      1.60    diag

 Final occupancy:   7   2

 !RHF STATE 1.1 Energy               -115.087816132643
  RHF One-electron energy            -236.556533463735
  RHF Two-electron energy              81.304984322372
  RHF Kinetic energy                  114.896297886773
  RHF Nuclear energy                   40.163733008720
  RHF Virial quotient                  -1.001666879172

 !RHF STATE 1.1 Dipole moment           0.00000000     0.59226009    -0.41352824
 Dipole moment /Debye                   0.00000000     1.50537500    -1.05108395

 Orbital energies:

           1.1          2.1          3.1          4.1          5.1          6.1          7.1          8.1          9.1
    -20.558766   -11.273949    -1.355297    -0.926577    -0.688816    -0.596386    -0.504235     0.056490     0.061836

           1.2          2.2          3.2          4.2
     -0.618753    -0.450471     0.071318     0.160093


 HOMO      2.2    -0.450471 =     -12.2580eV
 LUMO      8.1     0.056490 =       1.5372eV
 LUMO-HOMO         0.506961 =      13.7951eV

 Orbitals saved in record  2100.2


 **********************************************************************************************************************************
 DATASETS  * FILE   NREC   LENGTH (MB)   RECORD NAMES
              1      19       83.80       500      610      700      900      950      970     1000      129      960     1100   
                                          VAR    BASINP    GEOM    SYMINP    ZMAT    AOBASIS   BASIS     P2S    ABASIS      S 
                                         1400     1410     1200     1210     1080     1600     1650     1300     1700   
                                           T        V       H0       H01     AOSYM     SMH    MOLCAS    ERIS     OPER   

              2       4        0.54       700     1000      520     2100   
                                         GEOM     BASIS   MCVARS     RHF  

 PROGRAMS   *        TOTAL    HF-SCF       INT
 CPU TIMES  *         4.31      1.61      2.60
 REAL TIME  *         3.06 SEC
 DISK USED  *       244.88 MB
 **********************************************************************************************************************************


 PROGRAM * CCSD (Closed-shell coupled cluster)     Authors: C. Hampel, H.-J. Werner, 1991, M. Deegan, P.J. Knowles, 1992

                                  CCSD-F12 implementation by  H.-J. Werner, 2007

                   Density fitting integral evaluation by F.R. Manby, 2003,2007, G. Knizia, 2010


 Basis set VDZ-F12/JKFIT generated.      Number of basis functions:   300 
 Basis set V5Z/JKFIT generated.          Number of basis functions:   624 
 Basis set AUG-CC-PWCV5Z/MP2FIT generated. Number of basis functions:   1164 

 Convergence thresholds:  THRVAR = 1.00D-08  THRDEN = 1.00D-06

 CCSD(T)     terms to be evaluated (factor= 1.000)


 Number of core orbitals:           2 (   2   0 )
 Number of closed-shell orbitals:   7 (   5   2 )
 Number of external orbitals:     109 (  71  38 )

 Molecular orbitals read from record     2100.2  Type=RHF/CANONICAL  

 MP2-F12 correlation treatment (H.-J. Werner, 2006)
 ==================================================

 Using MP2-F12 with ansatz 3C(FIX)

 Using projected zeroth-order Hamiltonian (+Z)

 FOCKRIB=T FOCKRIC=T FOCKRIP=T CABSP=T CABSA=T CABSK=T CABSF=T GBC=F EBC=F DMAT=T NOFIK=T NOPAO=1 SOLVE=-1  USEPAO=0
 EXCH_A= T EXCH_B= F EXCH_C= F EXCH_P= F

 Geminal basis:    OPTFULL  GEM_TYPE=SLATER  BETA=1.0  NGEM=6

 Optimizing Gaussian exponents for each gem_beta

 Geminal optimization for beta= 1.0000
 Weight function:   m=0, omega= 1.4646

 Augmented Hessian optimization of geminal fit. Trust ratio= 0.40000
 Convergence reached after   2 iterations. Final gradient= 8.66D-16, Step= 4.23D-06, Delta= 1.28D-09

 Alpha:                 0.19532     0.81920     2.85917     9.50073    35.69989   197.79328
 Coeff:                 0.27070     0.30552     0.18297     0.10986     0.06810     0.04224


 Symmetry turned off. Reference energy:       -115.087816132643

 All pairs explicitly correlated. Number of r12-pairs:           28

 Excluding core orbitals from MO domains

 AO(A)-basis ORBITAL           loaded. Number of functions:     118
 RI(R)-basis V5Z/JKFIT         loaded. Number of functions:     624
 DF-basis VDZ-F12/JKFIT        loaded. Number of functions:     300

 Screening thresholds:   THRAO=  1.00D-10  THRMO=  1.00D-09  THRPROD=  1.00D-09
                         THRSW=  1.00D-05  THROV=  1.00D-12  THRAOF12= 1.00D-08

 CPU time for Fock operators                     11.81 sec

 Construction of ABS:
 Smallest eigenvalue of S          1.86E-05  (threshold= 1.00E-08)
 Ratio eigmin/eigmax               2.53E-06  (threshold= 1.00E-09)
 Smallest eigenvalue of S kept     1.86E-05  (threshold= 1.86E-05, 0 functions deleted, 624 kept)

 Construction of CABS:
 Smallest eigenvalue of S          2.81E-08  (threshold= 1.00E-08)
 Ratio eigmin/eigmax               2.81E-08  (threshold= 1.00E-09)
 Smallest eigenvalue of S kept     2.81E-08  (threshold= 2.81E-08, 0 functions deleted, 624 kept)

 CPU time for CABS singles                        0.32 sec

 CABS-singles contribution of  -0.00934558 patched into reference energy.
 New reference energy        -115.09716171

 AO(A)-basis ORBITAL           loaded. Number of functions:     118
 RI(R)-basis V5Z/JKFIT         loaded. Number of functions:     624
 DF-basis AUG-CC-PWCV5Z/MP2FIT loaded. Number of functions:    1164

 Screening thresholds:   THRAO=  1.00D-10  THRMO=  1.00D-09  THRPROD=  1.00D-09
                         THRSW=  1.00D-05  THROV=  1.00D-12  THRAOF12= 1.00D-08

 CPU time for 3-index integral evaluation         7.64 sec
 CPU time for first  half transformation          0.57 sec (11207.0 MFLOP/sec)
 CPU time for second half transformation          0.02 sec ( 6057.2 MFLOP/sec)
 CPU time for sorting                             0.02 sec
 CPU time for fitting                             0.70 sec (20838.3 MFLOP/sec)
 CPU time for tilde quantities                    0.73 sec (22814.2 MFLOP/sec)
 CPU time for assembly                            2.84 sec (25633.0 MFLOP/sec)
 CPU time for tranop_f12                          3.45 sec (12548.3 MFLOP/sec)
 CPU time for f12 integrals (total)              31.49 sec, Elapsed time:     22.04 sec
 CPU time for f12 matrices (total)                0.76 sec, Elapsed time:      0.13 sec

 Diagonal F12 approximation with fixed coefficients:  TSING= 0.500,  TTRIP= 0.250 (scaled by -1/beta)

 DF-MP2-F12 energy corrections:
 ==============================
 Approx.                                    Singlet             Triplet             Total
 DF-MP2-F12/3*C(DX,FIX)                -0.072831916619     -0.013684514201     -0.086516430820
 DF-MP2-F12/3*C(FIX)                   -0.067852268497     -0.014017283261     -0.081869551758
 DF-MP2-F12/3C(FIX)                    -0.068983671150     -0.014876271205     -0.083859942354

 DF-MP2-F12 correlation energies:
 ================================
 Approx.                                    Singlet             Triplet             Ecorr            Total Energy
 DF-MP2                                -0.255641961127     -0.140678305288     -0.396320266415   -115.493481980424
 DF-MP2-F12/3*C(DX,FIX)                -0.328473877746     -0.154362819489     -0.482836697235   -115.579998411245
 DF-MP2-F12/3*C(FIX)                   -0.323494229624     -0.154695588549     -0.478189818173   -115.575351532182
 DF-MP2-F12/3C(FIX)                    -0.324625632277     -0.155554576492     -0.480180208770   -115.577341922779

 SCS-DF-MP2 energies (F_SING= 1.20000  F_TRIP= 0.62222  F_PARALLEL= 0.33333):
 ============================================================================
 SCS-DF-MP2                            -0.394303521087   -115.491465235097
 SCS-DF-MP2-F12/3*C(DX,FIX)            -0.490216629866   -115.587378343876
 SCS-DF-MP2-F12/3*C(FIX)               -0.484448108424   -115.581609822433
 SCS-DF-MP2-F12/3C(FIX)                -0.486340272995   -115.583501987004

 Symmetry restored.
 Symmetry transformation completed.

 Number of N-1 electron functions:               7
 Number of N-2 electron functions:              28
 Number of singly external CSFs:               431
 Number of doubly external CSFs:            148374
 Total number of CSFs:                      148806

 Length of J-op  integral file:             196.73 MB
 Length of K-op  integral file:             194.31 MB
 Length of 3-ext integral record:             0.00 MB

 Memory could be reduced to 6.71 Mwords without degradation in triples

 Integral transformation finished. Total CPU:   1.68 sec, npass=  1  Memory used:   2.21 MW

 Reference energy:                   -115.09716171

 Adding F12 terms to K(Cij), methodcc=6,  factor= 1.0

 ITER.      SQ.NORM     CORR.ENERGY   TOTAL ENERGY   ENERGY CHANGE        DEN1      VAR(S)    VAR(P)  DIIS     TIME  TIME/IT
   1      1.11239773    -0.40548350  -115.50264522    -0.00916294     0.00110449  0.15D-02  0.18D-02  1  1    73.21     1.85
   2      1.11941356    -0.40572905  -115.50289077    -0.00024555    -0.00836987  0.26D-04  0.21D-03  2  2    92.31     1.76
   3      1.12220359    -0.40599317  -115.50315488    -0.00026412    -0.00197381  0.11D-04  0.11D-04  3  3   112.02     1.75
   4      1.12300816    -0.40607498  -115.50323669    -0.00008181    -0.00046551  0.74D-06  0.10D-05  4  4   130.00     1.70
   5      1.12313720    -0.40607335  -115.50323506     0.00000163    -0.00003645  0.21D-06  0.95D-07  5  5   152.28     1.74
   6      1.12317665    -0.40607135  -115.50323306     0.00000200    -0.00000762  0.31D-07  0.91D-08  6  6   172.39     1.74
   7      1.12318550    -0.40607126  -115.50323297     0.00000009    -0.00000157  0.40D-08  0.17D-08  6  2   190.16     1.71
   8      1.12318808    -0.40607113  -115.50323285     0.00000012    -0.00000039  0.69D-09  0.24D-09  6  1   208.88     1.70

 Norm of t1 vector:      0.05005925      S-energy:    -0.00000020      T1 diagnostic:  0.00946031
                                                                       D1 diagnostic:  0.01915165
                                                                       D2 diagnostic:  0.13371325 (internal)

 Adding energy correction from Wij-K(Fij), methodcc=6  factor= 1.0

  CCSD correlation energy              -0.406071131523
  MP2-F12 correction (uncoupled)       -0.079017699537
  C*T doubles correction               -0.002825612496
  f12b correction                       0.010651312162


 Total CPU time for triples:     14.96 sec


 RESULTS
 =======

  Reference energy                   -115.087816132643
  F12 singles correction               -0.009345581366

 F12 singles corrections added to reference energy

  New reference energy               -115.097161714009

  F12a singlet correction              -0.067660039464
  F12a triplet correction              -0.014183272570
  F12a total correction                -0.081843312033

 F12a corrections for ansatz F12/3C(FIX) added to CCSD energy

  CCSD-F12a singlet pair energy        -0.346598407573
  CCSD-F12a triplet pair energy        -0.141315839523
  CCSD-F12a correlation energy         -0.487914443557

  Triples (T) contribution             -0.013249807527
  Total correlation energy             -0.501164251084

  CCSD-F12a total energy             -115.585076157566
  CCSD[T]-F12a energy                -115.598862336931
  CCSD-T-F12a energy                 -115.598095646618
 !CCSD(T)-F12a total energy          -115.598325965093

 F12b corrections for ansatz F12/3C(FIX) added to CCSD(T)-F12a energy

  CCSD-F12b singlet pair energy        -0.336895553329
  CCSD-F12b triplet pair energy        -0.140367381606
  CCSD-F12b correlation energy         -0.477263131395

  Triples (T) contribution             -0.013249807527
  Total correlation energy             -0.490512938922

  CCSD-F12b total energy             -115.574424845404
  CCSD[T]-F12b energy                -115.588211024769
  CCSD-T-F12b energy                 -115.587444334456
 !CCSD(T)-F12b total energy          -115.587674652931

 Timing summary (sec):

 STEP                 CPU(USER)    SYS     CPU(TOT)    WALL
 Transformation          6.07      0.07      6.14      0.65
 CCSD iterations       159.25      2.44    161.69     13.91
 Triples                14.96      0.15     15.11      1.11
 MP2-F12                45.47      1.03     46.50     33.29
 F12b energy             2.20      0.03      2.23      0.23

 Program statistics:

 Available memory in ccsd:               499999657
 Min. memory needed in ccsd:                493551
 Max. memory used in ccsd:                  613772
 Max. memory used in cckext:                725839 ( 9 integral passes)



 **********************************************************************************************************************************
 DATASETS  * FILE   NREC   LENGTH (MB)   RECORD NAMES
              1      20      103.91       500      610      700      900      950      970     1000      129      960     1100   
                                          VAR    BASINP    GEOM    SYMINP    ZMAT    AOBASIS   BASIS     P2S    ABASIS      S 
                                         1400     1410     1200     1210     1080     1600     1650     1300     1700     1380   
                                           T        V       H0       H01     AOSYM     SMH    MOLCAS    ERIS     OPER     JKOP   

              2       6        0.63       700     1000      520     2100     7360     7350   
                                         GEOM     BASIS   MCVARS     RHF    F12ABS    EF12   

 PROGRAMS   *        TOTAL   CCSD(T)    HF-SCF       INT
 CPU TIMES  *       232.31    228.00      1.61      2.60
 REAL TIME  *        52.45 SEC
 DISK USED  *       885.97 MB
 **********************************************************************************************************************************
 SETTING E_CCSD(1)      =      -115.58507616  AU                              
 SETTING E_CCSD(2)      =      -115.57442485  AU                              
 SETTING E_T(1)         =        -0.01324981  AU                              
 SETTING E_T(2)         =        -0.01324981  AU                              


 ERROR IN MAKETAB: STRING COLUMN "E" SPECIFIED AFTER DATA COLUMN(S)

 CCSD(T)-F12/aug-cc-pVDZ-F12 energy=   -115.587674652931

     CCSD(T)-F12          HF-SCF
   -115.58767465   -115.08781613
 **********************************************************************************************************************************
 Molpro calculation terminated
