
 Working directory              : /tmp/asmola/molpro.JMdhSJtK50/
 Global scratch directory       : /tmp/asmola/molpro.JMdhSJtK50/
 Wavefunction directory         : /home/asmola/wfu/
 Main file repository           : /tmp/asmola/molpro.JMdhSJtK50/

 id        : uclcc

 Nodes                        nprocs
 vincent.theory.phys.ucl.ac.uk    1
 GA implementation: MPI file
 GA implementation (serial work in mppx): MPI file

 Using customized tuning parameters: mindgm=1; mindgv=20; mindgc=4; mindgr=1; noblas=0; minvec=7
 default implementation of scratch files=df  


 Variables initialized (1015), CPU time= 0.00 sec
 ***,Methanol Ground State Energy with CCSD(T)-F12 and cc-pVTZ-F12
 memory,500,m;
 
 geometry={angstrom
 c
 o , 1, rco
 h , 2, roh, 1, acoh
 h1, 1, rch1, 2, aoch1  3  ahh1
 h2, 1, rch2, 2, aoch2, 3, ahh2
 h3, 1, rch3, 2, aoch3, 3, ahh3
 }
 
                                                ! Specify the initial values of the internal coordinates (in Angstroms and degrees)
 re1= 1.4296
 re2= 0.95887
 re3= 1.092294
 re4= 1.092294
 re5= 1.092294
 ae1= 107.9812
 ae2= 110.6646
 ae3= 110.6646
 ae4= 110.6646
 ahh1=60.00
 ahh2=180.00
 ahh3=300.00
 
 rco= 1.4296
 roh= 0.95887
 rch1= 1.092294
 rch2= 1.092294
 rch3= 1.092294
 acoh= 107.9812
 aoch1= 110.6646
 aoch2= 110.6646
 aoch3= 110.6646
 ahh1=60.00
 ahh2=180.00
 ahh3=300.00
 
 DKROLL=1
 
                                                                                 ! Use the cc-pVTZ-F12 basis set
 basis=cc-pVTZ-F12
 
 hf
 
                                                                                 ! Use explicitly correlated F12 methods
                                                                            ! First, MP2-F12 (useful for initial electronic energy)
 {mp2-f12}
 
                                                                        ! If desired, perform CCSD(T)-F12 for more accurate results
 {ccsd(t)-f12}
 
                                                                                 ! Output the energy
 
 Commands initialized (818), CPU time= 0.01 sec, 672 directives.
 Default parameters read. Elapsed time= 0.05 sec

 Checking input...
 Passed
1


                                         ***  PROGRAM SYSTEM MOLPRO  ***
                                       Copyright, TTI GmbH Stuttgart, 2015
                                    Version 2022.1 linked Mar  3 2022 23:20:00


 **********************************************************************************************************************************
 LABEL *   Methanol Ground State Energy with CCSD(T)-F12 and cc-pVTZ-F12                 
  (8 PROC) 64 bit serial version                                                         DATE: 29-Nov-24          TIME: 12:38:24  
 **********************************************************************************************************************************

 SHA1:             31073afc4d8441e10870424e0d77336a33bc4286
 **********************************************************************************************************************************

 Memory per process:       500 MW
 Total memory per node:    500 MW

 GA preallocation disabled
 GA check disabled

 Variable memory set to 500.0 MW

 SETTING RE1            =         1.42960000                                  
 SETTING RE2            =         0.95887000                                  
 SETTING RE3            =         1.09229400                                  
 SETTING RE4            =         1.09229400                                  
 SETTING RE5            =         1.09229400                                  
 SETTING AE1            =       107.98120000                                  
 SETTING AE2            =       110.66460000                                  
 SETTING AE3            =       110.66460000                                  
 SETTING AE4            =       110.66460000                                  
 SETTING AHH1           =        60.00000000                                  
 SETTING AHH2           =       180.00000000                                  
 SETTING AHH3           =       300.00000000                                  
 SETTING RCO            =         1.42960000                                  
 SETTING ROH            =         0.95887000                                  
 SETTING RCH1           =         1.09229400                                  
 SETTING RCH2           =         1.09229400                                  
 SETTING RCH3           =         1.09229400                                  
 SETTING ACOH           =       107.98120000                                  
 SETTING AOCH1          =       110.66460000                                  
 SETTING AOCH2          =       110.66460000                                  
 SETTING AOCH3          =       110.66460000                                  
 SETTING AHH1           =        60.00000000                                  
 SETTING AHH2           =       180.00000000                                  
 SETTING AHH3           =       300.00000000                                  
 SETTING DKROLL         =         1.00000000                                  
 SETTING BASIS          =    CC-PVTZ-F12


 Recomputing integrals since basis changed


 Using spherical harmonics

 Library entry C      S cc-pVTZ-F12          selected for orbital group  1
 Library entry C      P cc-pVTZ-F12          selected for orbital group  1
 Library entry C      D cc-pVTZ-F12          selected for orbital group  1
 Library entry C      F cc-pVTZ-F12          selected for orbital group  1
 Library entry O      S cc-pVTZ-F12          selected for orbital group  2
 Library entry O      P cc-pVTZ-F12          selected for orbital group  2
 Library entry O      D cc-pVTZ-F12          selected for orbital group  2
 Library entry O      F cc-pVTZ-F12          selected for orbital group  2
 Library entry H      S cc-pVTZ-F12          selected for orbital group  3
 Library entry H      P cc-pVTZ-F12          selected for orbital group  3
 Library entry H      D cc-pVTZ-F12          selected for orbital group  3


 PROGRAM * SEWARD (Integral evaluation for generally contracted gaussian basis sets)     Author: Roland Lindh, 1990

 Geometry written to block  1 of record 700

 Orientation using atomic masses  
 Molecule type: Asymmetric top
 Symmetry elements: X
 Rotational constants:      23.6333757     24.5065391    128.9114827 GHz  (calculated with average atomic masses)

 Point group  Cs  



 ATOMIC COORDINATES

 NR  ATOM    CHARGE       X              Y              Z

   1  C       6.00    0.000000000    0.021622205   -1.383678043
   2  O       8.00    0.000000000   -0.126383340    1.313817109
   3  H       1.00    0.000000000    1.563882378    1.966773405
   4  H1      1.00    1.672584827    1.025746373   -2.058106820
   5  H3      1.00   -1.672584827    1.025746373   -2.058106820
   6  H2      1.00    0.000000000   -1.866904676   -2.216820134

 Bond lengths in Bohr (Angstrom)

 1-2  2.701552468  1-4  2.064136508  1-5  2.064136508  1-6  2.064136508  2-3  1.812001689
     ( 1.429600000)     ( 1.092294000)     ( 1.092294000)     ( 1.092294000)     ( 0.958870000)

 Bond angles

  1-2-3  107.98120000   2-1-4  110.66460000   2-1-5  110.66460000   2-1-6  110.66460000

  4-1-5  108.25192757   4-1-6  108.25192757   5-1-6  108.25192757

 NUCLEAR CHARGE:                   18
 NUMBER OF PRIMITIVE AOS:         228
 NUMBER OF SYMMETRY AOS:          206
 NUMBER OF CONTRACTIONS:          178   (  114A'  +   64A"  )
 NUMBER OF INNER CORE ORBITALS:     0   (    0A'  +    0A"  )
 NUMBER OF OUTER CORE ORBITALS:     2   (    2A'  +    0A"  )
 NUMBER OF VALENCE ORBITALS:       12   (    9A'  +    3A"  )


 NUCLEAR REPULSION ENERGY   40.16373301

 One-electron integrals computed with SEWARD

 2nd-order Douglas-Kroll-Hess method activated. Optimal DKH parametrization is used.

 Computing Douglas-Kroll / X2C integrals

 AO integral compression algorithm  1   Integral accuracy      1.0D-11

     331.350 MB (compressed) written to integral file ( 53.4%)


 NUMBER OF SORTED TWO-ELECTRON INTEGRALS:   64554730.     BUFFER LENGTH:  32768
 NUMBER OF SEGMENTS:   5  SEGMENT LENGTH:   15997996      RECORD LENGTH: 524288

 Memory used in sort:      16.56 MW

 SORT1 READ    77497885. AND WROTE    63543333. INTEGRALS IN    184 RECORDS. CPU TIME:     0.61 SEC, REAL TIME:     0.87 SEC
 SORT2 READ    63543333. AND WROTE    64554730. INTEGRALS IN   1264 RECORDS. CPU TIME:     0.68 SEC, REAL TIME:     0.89 SEC

 FILE SIZES:   FILE 1:   363.0 MBYTE,  FILE 4:   771.8 MBYTE,   TOTAL:   1134.8 MBYTE

 OPERATOR DM      FOR CENTER  0  COORDINATES:    0.000000    0.000000    0.000000

 Eigenvalues of metric

         1 0.891E-04 0.188E-03 0.310E-03 0.462E-03 0.495E-03 0.562E-03 0.621E-03 0.624E-03
         2 0.327E-03 0.571E-03 0.687E-03 0.180E-02 0.355E-02 0.488E-02 0.647E-02 0.854E-02


 **********************************************************************************************************************************
 DATASETS  * FILE   NREC   LENGTH (MB)   RECORD NAMES
              1      23      297.76       500      610      700      900      950      970     1000      129      960     1700   
                                          VAR    BASINP    GEOM    SYMINP    ZMAT    AOBASIS   BASIS     P2S    ABASIS    OPER   
                                         1101     1401     1411     1412     1650     1100     1400     1410     1200     1210   
                                          SR      EKINR    POTR     PVPR    MOLCAS      S      EKIN      POT      H0       H01  
                                         1300     1080     1600   
                                         ERIS     AOSYM     SMH  

 PROGRAMS   *        TOTAL       INT
 CPU TIMES  *        12.18     12.07
 REAL TIME  *         5.25 SEC
 DISK USED  *         1.06 GB
 **********************************************************************************************************************************


 Program * Restricted Hartree-Fock

 Orbital guess generated from atomic densities. Full valence occupancy:   11   3

 Initial occupancy:   7   2

 NELEC=   18   SYM=1   MS2= 0   THRE=1.0D-08   THRD=3.2D-06   THRG=3.2D-06  HFMA2=F  DIIS_START=2   DIIS_MAX=10   DIIS_INCORE=F

 Level shifts:    0.00 (CLOSED)    0.00 (OPEN)    0.30 (GAP_MIN)

 ITER           ETOT              DE          GRAD        DDIFF     DIIS  NEXP   TIME(IT)  TIME(TOT)  DIAG
   1     -115.12316038    -115.12316038     0.00D+00     0.66D-01     0     0       1.31      2.41    start
   2     -115.15166585      -0.02850547     0.67D-02     0.66D-02     1     0       1.19      3.60    diag
   3     -115.15940135      -0.00773549     0.37D-02     0.23D-02     2     0       1.15      4.75    diag
   4     -115.15993483      -0.00053348     0.72D-03     0.59D-03     3     0       1.16      5.91    diag
   5     -115.15996916      -0.00003433     0.14D-03     0.17D-03     4     0       1.23      7.14    diag
   6     -115.15997071      -0.00000155     0.27D-04     0.48D-04     5     0       1.16      8.30    diag
   7     -115.15997078      -0.00000007     0.56D-05     0.12D-04     6     0       1.15      9.45    diag
   8     -115.15997078      -0.00000000     0.15D-05     0.23D-05     7     0       1.25     10.70    fixocc
   9     -115.15997078      -0.00000000     0.47D-06     0.51D-06     0     0       1.31     12.01    diag

 Final occupancy:   7   2

 !RHF STATE 1.1 Energy               -115.159970780973
  RHF One-electron energy            -236.679325296524
  RHF Two-electron energy              81.355621506831
  RHF Kinetic energy                  115.419489590684
  RHF Nuclear energy                   40.163733008720
  RHF Virial quotient                  -0.997751516571

 !RHF STATE 1.1 Dipole moment           0.00000000     0.59268876    -0.41426136
 Dipole moment /Debye                   0.00000000     1.50646457    -1.05294734

 Orbital energies:

           1.1          2.1          3.1          4.1          5.1          6.1          7.1          8.1          9.1
    -20.568128   -11.275381    -1.355723    -0.926435    -0.688155    -0.595656    -0.504001     0.054448     0.064745

           1.2          2.2          3.2          4.2
     -0.619051    -0.451470     0.074013     0.181528


 HOMO      2.2    -0.451470 =     -12.2851eV
 LUMO      8.1     0.054448 =       1.4816eV
 LUMO-HOMO         0.505918 =      13.7667eV

 Orbitals saved in record  2100.2


 **********************************************************************************************************************************
 DATASETS  * FILE   NREC   LENGTH (MB)   RECORD NAMES
              1      23      297.76       500      610      700      900      950      970     1000      129      960     1700   
                                          VAR    BASINP    GEOM    SYMINP    ZMAT    AOBASIS   BASIS     P2S    ABASIS    OPER   
                                         1101     1401     1411     1412     1650     1100     1400     1410     1200     1210   
                                          SR      EKINR    POTR     PVPR    MOLCAS      S      EKIN      POT      H0       H01  
                                         1300     1080     1600   
                                         ERIS     AOSYM     SMH  

              2       4        0.70       700     1000      520     2100   
                                         GEOM     BASIS   MCVARS     RHF  

 PROGRAMS   *        TOTAL    HF-SCF       INT
 CPU TIMES  *        24.22     12.04     12.07
 REAL TIME  *         8.98 SEC
 DISK USED  *         1.06 GB
 **********************************************************************************************************************************


 PROGRAM * MP2 (Closed-shell)     Authors: C. Hampel, H.-J. Werner, 1991, M. Deegan, P.J. Knowles, 1992

                                   MP2-F12 implementation by H.-J. Werner, 2007

                   Density fitting integral evaluation by F.R. Manby, 2003,2007, G. Knizia, 2010


 Basis set VTZ-F12/JKFIT generated.      Number of basis functions:   392 
 Basis set CC-PVTZ-F12/OPTRI generated.  Number of basis functions:   314 
 Basis set CC-PVTZ-F12/MP2FIT generated. Number of basis functions:   396 

 Convergence thresholds:  THRVAR = 1.00D-08  THRDEN = 1.00D-06

 Number of core orbitals:           2 (   2   0 )
 Number of closed-shell orbitals:   7 (   5   2 )
 Number of external orbitals:     169 ( 107  62 )

 Molecular orbitals read from record     2100.2  Type=RHF/CANONICAL  

 MP2-F12 correlation treatment (H.-J. Werner, 2006)
 ==================================================

 Using MP2-F12 with ansatz 3C(FIX)

 Using projected zeroth-order Hamiltonian (+Z)

 FOCKRIB=T FOCKRIC=T FOCKRIP=T CABSP=T CABSA=T CABSK=T CABSF=T GBC=F EBC=F DMAT=T NOFIK=T NOPAO=1 SOLVE=-1  USEPAO=0
 EXCH_A= T EXCH_B= F EXCH_C= F EXCH_P= F

 Geminal basis:    OPTFULL  GEM_TYPE=SLATER  BETA=1.0  NGEM=6

 Optimizing Gaussian exponents for each gem_beta

 Geminal optimization for beta= 1.0000
 Weight function:   m=0, omega= 1.4646

 Augmented Hessian optimization of geminal fit. Trust ratio= 0.40000
 Convergence reached after   2 iterations. Final gradient= 8.66D-16, Step= 4.23D-06, Delta= 1.28D-09

 Alpha:                 0.19532     0.81920     2.85917     9.50073    35.69989   197.79328
 Coeff:                 0.27070     0.30552     0.18297     0.10986     0.06810     0.04224


 Symmetry turned off. Reference energy:       -115.159970780973

 All pairs explicitly correlated. Number of r12-pairs:           28

 Excluding core orbitals from MO domains

 AO(A)-basis ORBITAL           loaded. Number of functions:     178
 RI(R)-basis CC-PVTZ-F12/OPTRI loaded. Number of functions:     314
 DF-basis VTZ-F12/JKFIT        loaded. Number of functions:     392

 Screening thresholds:   THRAO=  1.00D-10  THRMO=  1.00D-09  THRPROD=  1.00D-09
                         THRSW=  1.00D-05  THROV=  1.00D-12  THRAOF12= 1.00D-08

 CPU time for Fock operators                      6.30 sec

 Construction of ABS:
 Smallest eigenvalue of S          4.21E-04  (threshold= 1.00E-08)
 Ratio eigmin/eigmax               5.39E-05  (threshold= 1.00E-09)
 Smallest eigenvalue of S kept     4.21E-04  (threshold= 4.21E-04, 0 functions deleted, 314 kept)

 Construction of CABS:
 Smallest eigenvalue of S          7.45E-07  (threshold= 1.00E-08)
 Ratio eigmin/eigmax               7.45E-07  (threshold= 1.00E-09)
 Smallest eigenvalue of S kept     7.45E-07  (threshold= 7.45E-07, 0 functions deleted, 314 kept)

 CPU time for CABS singles                        0.11 sec

 CABS-singles contribution of  -0.00139575 patched into reference energy.
 New reference energy        -115.16136653

 AO(A)-basis ORBITAL           loaded. Number of functions:     178
 RI(R)-basis CC-PVTZ-F12/OPTRI loaded. Number of functions:     314
 DF-basis CC-PVTZ-F12/MP2FIT   loaded. Number of functions:     396

 Screening thresholds:   THRAO=  1.00D-10  THRMO=  1.00D-09  THRPROD=  1.00D-09
                         THRSW=  1.00D-05  THROV=  1.00D-12  THRAOF12= 1.00D-08

 CPU time for 3-index integral evaluation         4.77 sec
 CPU time for first  half transformation          0.51 sec ( 4841.3 MFLOP/sec)
 CPU time for sorting                             0.01 sec
 CPU time for fitting                             0.11 sec (10358.4 MFLOP/sec)
 CPU time for tilde quantities                    0.12 sec (12587.1 MFLOP/sec)
 CPU time for assembly                            0.58 sec (21299.3 MFLOP/sec)
 CPU time for tranop_f12                          1.35 sec (11748.3 MFLOP/sec)
 CPU time for f12 integrals (total)              10.69 sec, Elapsed time:      5.71 sec
 CPU time for f12 matrices (total)                0.43 sec, Elapsed time:      0.06 sec

 Diagonal F12 approximation with fixed coefficients:  TSING= 0.500,  TTRIP= 0.250 (scaled by -1/beta)

 DF-MP2-F12 energy corrections:
 ==============================
 Approx.                                    Singlet             Triplet             Total
 DF-MP2-F12/3*C(DX,FIX)                -0.038248326532     -0.004202055844     -0.042450382376
 DF-MP2-F12/3*C(FIX)                   -0.036063628774     -0.003922606397     -0.039986235170
 DF-MP2-F12/3C(FIX)                    -0.036020875180     -0.004065577301     -0.040086452481

 DF-MP2-F12 correlation energies:
 ================================
 Approx.                                    Singlet             Triplet             Ecorr            Total Energy
 DF-MP2                                -0.291419403142     -0.152438637120     -0.443858040261   -115.605224567975
 DF-MP2-F12/3*C(DX,FIX)                -0.329667729673     -0.156640692964     -0.486308422637   -115.647674950351
 DF-MP2-F12/3*C(FIX)                   -0.327483031915     -0.156361243517     -0.483844275432   -115.645210803145
 DF-MP2-F12/3C(FIX)                    -0.327440278322     -0.156504214420     -0.483944492742   -115.645311020456

 SCS-DF-MP2 energies (F_SING= 1.20000  F_TRIP= 0.62222  F_PARALLEL= 0.33333):
 ============================================================================
 SCS-DF-MP2                            -0.444553991311   -115.605920519024
 SCS-DF-MP2-F12/3*C(DX,FIX)            -0.493066595674   -115.654433123388
 SCS-DF-MP2-F12/3*C(FIX)               -0.490271078708   -115.651637606422
 SCS-DF-MP2-F12/3C(FIX)                -0.490308734070   -115.651675261783

 Symmetry restored.
 Symmetry transformation completed.

 Number of N-1 electron functions:               7
 Number of N-2 electron functions:              28
 Number of singly external CSFs:               659
 Number of doubly external CSFs:            355020
 Total number of CSFs:                      355680

 Length of J-op  integral file:             103.49 MB
 Length of K-op  integral file:             127.95 MB

 Integral transformation finished. Total CPU:   2.70 sec, npass=  1  Memory used:   0.67 MW

 ITER.      SQ.NORM     CORR.ENERGY   TOTAL ENERGY   ENERGY CHANGE     VAR   MIC
   1      1.00000000    -0.44392480  -115.60529133    -0.44392480  0.00D+00   0
   2      1.11520527    -0.44392528  -115.60529181    -0.00000048  0.15D-06   0
   3      1.11520527    -0.44392528  -115.60529181    -0.00000000  0.36D-12   0

 Solving MP2-F12 equations

   1      1.11517131    -0.48324774  -115.64461426    -0.03932245 -0.36D-04   0
   2      1.11517131    -0.48401036  -115.64537689    -0.00076262  0.62D-10   0
   3      1.11517131    -0.48401036  -115.64537689    -0.00000000  0.80D-16   0

 CPU TIME FOR ITERATIVE MP2:    0.37 SEC


 MP2-F12 energy corrections:
 ===========================
 Approx.                                    Singlet             Triplet             Total
 MP2-F12/3*C(DX,FIX)                   -0.038248326532     -0.004202055844     -0.042450382376
 MP2-F12/3*C(FIX)                      -0.036063628774     -0.003922606397     -0.039986235170
 MP2-F12/3C(FIX)                       -0.036018224270     -0.004066850759     -0.040085075029

 MP2-F12 correlation energies:
 =============================
 Approx.                                    Singlet             Triplet             Ecorr            Total Energy
 MP2                                   -0.291602710513     -0.152322573522     -0.443925284035   -115.605291811749
 MP2-F12/3*C(DX,FIX)                   -0.329851037045     -0.156524629366     -0.486375666411   -115.647742194125
 MP2-F12/3*C(FIX)                      -0.327666339287     -0.156245179919     -0.483911519206   -115.645278046919
 MP2-F12/3C(FIX)                       -0.327620934783     -0.156389424281     -0.484010359065   -115.645376886778

 SCS-MP2 energies (F_SING= 1.20000  F_TRIP= 0.62222  F_PARALLEL= 0.33333):
 =========================================================================
 SCS-MP2                               -0.444701742807   -115.606068270521
 SCS-MP2-F12/3*C(DX,FIX)               -0.493214347171   -115.654580874884
 SCS-MP2-F12/3*C(FIX)                  -0.490418830205   -115.651785357918
 SCS-MP2-F12/3C(FIX)                   -0.490454096848   -115.651820624562


  Reference energy                   -115.159970780973
  F12 singles correction               -0.001395746741

 F12 singles corrections added to reference energy

  New reference energy               -115.161366527713

  F12/3C(F) singlet correction         -0.036018224270
  F12/3C(F) triplet correction         -0.004066850759
  F12/3C(F) total correction           -0.040085075029
  MP2-F12/3C(F) singlet pair energy    -0.327620934783
  MP2-F12/3C(F) triplet pair energy    -0.156389424281
  MP2-F12/3C(F) correlation energy     -0.484010359065

 !MP2-F12/3C(F) total energy         -115.645376886778


 **********************************************************************************************************************************
 DATASETS  * FILE   NREC   LENGTH (MB)   RECORD NAMES
              1      24      303.22       500      610      700      900      950      970     1000      129      960     1700   
                                          VAR    BASINP    GEOM    SYMINP    ZMAT    AOBASIS   BASIS     P2S    ABASIS    OPER   
                                         1101     1401     1411     1412     1650     1100     1400     1410     1200     1210   
                                          SR      EKINR    POTR     PVPR    MOLCAS      S      EKIN      POT      H0       H01  
                                         1300     1080     1600     1380   
                                         ERIS     AOSYM     SMH     JKOP   

              2       7        0.91       700     1000      520     2100     7360     7350     7000   
                                         GEOM     BASIS   MCVARS     RHF    F12ABS    EF12   

 PROGRAMS   *        TOTAL   MP2-F12    HF-SCF       INT
 CPU TIMES  *        45.40     21.17     12.04     12.07
 REAL TIME  *        20.25 SEC
 DISK USED  *         1.06 GB
 **********************************************************************************************************************************


 PROGRAM * CCSD (Closed-shell coupled cluster)     Authors: C. Hampel, H.-J. Werner, 1991, M. Deegan, P.J. Knowles, 1992

                                  CCSD-F12 implementation by  H.-J. Werner, 2007

                   Density fitting integral evaluation by F.R. Manby, 2003,2007, G. Knizia, 2010



 Convergence thresholds:  THRVAR = 1.00D-08  THRDEN = 1.00D-06

 CCSD(T)     terms to be evaluated (factor= 1.000)


 Number of core orbitals:           2 (   2   0 )
 Number of closed-shell orbitals:   7 (   5   2 )
 Number of external orbitals:     169 ( 107  62 )

 Molecular orbitals read from record     2100.2  Type=RHF/CANONICAL  

 MP2-F12 correlation treatment (H.-J. Werner, 2006)
 ==================================================

 Using MP2-F12 with ansatz 3C(FIX)

 Using projected zeroth-order Hamiltonian (+Z)

 FOCKRIB=T FOCKRIC=T FOCKRIP=T CABSP=T CABSA=T CABSK=T CABSF=T GBC=F EBC=F DMAT=T NOFIK=T NOPAO=1 SOLVE=-1  USEPAO=0
 EXCH_A= T EXCH_B= F EXCH_C= F EXCH_P= F

 Geminal basis:    OPTFULL  GEM_TYPE=SLATER  BETA=1.0  NGEM=6

 Optimizing Gaussian exponents for each gem_beta

 Geminal optimization for beta= 1.0000
 Weight function:   m=0, omega= 1.4646

 Augmented Hessian optimization of geminal fit. Trust ratio= 0.40000
 Convergence reached after   2 iterations. Final gradient= 8.66D-16, Step= 4.23D-06, Delta= 1.28D-09

 Alpha:                 0.19532     0.81920     2.85917     9.50073    35.69989   197.79328
 Coeff:                 0.27070     0.30552     0.18297     0.10986     0.06810     0.04224


 Symmetry turned off. Reference energy:       -115.159970780973

 All pairs explicitly correlated. Number of r12-pairs:           28

 Excluding core orbitals from MO domains

 AO(A)-basis ORBITAL           loaded. Number of functions:     178
 RI(R)-basis CC-PVTZ-F12/OPTRI loaded. Number of functions:     314
 DF-basis VTZ-F12/JKFIT        loaded. Number of functions:     392

 Screening thresholds:   THRAO=  1.00D-10  THRMO=  1.00D-09  THRPROD=  1.00D-09
                         THRSW=  1.00D-05  THROV=  1.00D-12  THRAOF12= 1.00D-08

 CPU time for Fock operators                      6.23 sec

 Construction of ABS:
 Smallest eigenvalue of S          4.21E-04  (threshold= 1.00E-08)
 Ratio eigmin/eigmax               5.39E-05  (threshold= 1.00E-09)
 Smallest eigenvalue of S kept     4.21E-04  (threshold= 4.21E-04, 0 functions deleted, 314 kept)

 Construction of CABS:
 Smallest eigenvalue of S          7.45E-07  (threshold= 1.00E-08)
 Ratio eigmin/eigmax               7.45E-07  (threshold= 1.00E-09)
 Smallest eigenvalue of S kept     7.45E-07  (threshold= 7.45E-07, 0 functions deleted, 314 kept)

 CPU time for CABS singles                        0.10 sec

 CABS-singles contribution of  -0.00139575 patched into reference energy.
 New reference energy        -115.16136653

 AO(A)-basis ORBITAL           loaded. Number of functions:     178
 RI(R)-basis CC-PVTZ-F12/OPTRI loaded. Number of functions:     314
 DF-basis CC-PVTZ-F12/MP2FIT   loaded. Number of functions:     396

 Screening thresholds:   THRAO=  1.00D-10  THRMO=  1.00D-09  THRPROD=  1.00D-09
                         THRSW=  1.00D-05  THROV=  1.00D-12  THRAOF12= 1.00D-08

 CPU time for 3-index integral evaluation         4.77 sec
 CPU time for first  half transformation          0.55 sec ( 4489.2 MFLOP/sec)
 CPU time for second half transformation          0.02 sec ( 3108.5 MFLOP/sec)
 CPU time for fitting                             0.10 sec (11394.3 MFLOP/sec)
 CPU time for tilde quantities                    0.14 sec (10788.9 MFLOP/sec)
 CPU time for assembly                            0.53 sec (23308.7 MFLOP/sec)
 CPU time for tranop_f12                          1.39 sec (11410.2 MFLOP/sec)
 CPU time for f12 integrals (total)              10.69 sec, Elapsed time:      5.72 sec
 CPU time for f12 matrices (total)                0.44 sec, Elapsed time:      0.06 sec

 Diagonal F12 approximation with fixed coefficients:  TSING= 0.500,  TTRIP= 0.250 (scaled by -1/beta)

 DF-MP2-F12 energy corrections:
 ==============================
 Approx.                                    Singlet             Triplet             Total
 DF-MP2-F12/3*C(DX,FIX)                -0.038248326532     -0.004202055844     -0.042450382376
 DF-MP2-F12/3*C(FIX)                   -0.036063628774     -0.003922606397     -0.039986235170
 DF-MP2-F12/3C(FIX)                    -0.036020875180     -0.004065577301     -0.040086452481

 DF-MP2-F12 correlation energies:
 ================================
 Approx.                                    Singlet             Triplet             Ecorr            Total Energy
 DF-MP2                                -0.291419403142     -0.152438637120     -0.443858040261   -115.605224567975
 DF-MP2-F12/3*C(DX,FIX)                -0.329667729673     -0.156640692964     -0.486308422637   -115.647674950351
 DF-MP2-F12/3*C(FIX)                   -0.327483031915     -0.156361243517     -0.483844275432   -115.645210803145
 DF-MP2-F12/3C(FIX)                    -0.327440278322     -0.156504214420     -0.483944492742   -115.645311020456

 SCS-DF-MP2 energies (F_SING= 1.20000  F_TRIP= 0.62222  F_PARALLEL= 0.33333):
 ============================================================================
 SCS-DF-MP2                            -0.444553991311   -115.605920519024
 SCS-DF-MP2-F12/3*C(DX,FIX)            -0.493066595674   -115.654433123388
 SCS-DF-MP2-F12/3*C(FIX)               -0.490271078708   -115.651637606422
 SCS-DF-MP2-F12/3C(FIX)                -0.490308734070   -115.651675261783

 Symmetry restored.
 Symmetry transformation completed.

 Number of N-1 electron functions:               7
 Number of N-2 electron functions:              28
 Number of singly external CSFs:               659
 Number of doubly external CSFs:            355020
 Total number of CSFs:                      355680

 Length of J-op  integral file:             103.62 MB
 Length of K-op  integral file:             127.95 MB
 Length of 3-ext integral record:             0.00 MB

 Memory could be reduced to 24.20 Mwords without degradation in triples

 Integral transformation finished. Total CPU:   6.26 sec, npass=  1  Memory used:   7.45 MW

 Reference energy:                   -115.16136653

 Adding F12 terms to K(Cij), methodcc=6,  factor= 1.0

 ITER.      SQ.NORM     CORR.ENERGY   TOTAL ENERGY   ENERGY CHANGE        DEN1      VAR(S)    VAR(P)  DIIS     TIME  TIME/IT
   1      1.11809796    -0.45327022  -115.61463675    -0.00934542     0.00173361  0.15D-02  0.19D-02  1  1    30.47     0.94
   2      1.12557901    -0.45363230  -115.61499883    -0.00036209    -0.00910109  0.25D-04  0.23D-03  2  2    37.06     0.97
   3      1.12834751    -0.45381240  -115.61517893    -0.00018010    -0.00188086  0.15D-04  0.14D-04  3  3    43.40     0.97
   4      1.12931408    -0.45383070  -115.61519722    -0.00001829    -0.00060941  0.90D-06  0.12D-05  4  4    50.04     0.98
   5      1.12947396    -0.45383239  -115.61519892    -0.00000169    -0.00003905  0.24D-06  0.11D-06  5  5    56.51     0.98
   6      1.12951810    -0.45382999  -115.61519652     0.00000240    -0.00000449  0.38D-07  0.10D-07  6  6    62.96     0.98
   7      1.12952967    -0.45382910  -115.61519563     0.00000089    -0.00000308  0.42D-08  0.15D-08  6  1    69.47     0.98
   8      1.12953153    -0.45382917  -115.61519570    -0.00000007     0.00000036  0.72D-09  0.22D-09  6  3    75.98     0.98

 Norm of t1 vector:      0.05033445      S-energy:    -0.00000037      T1 diagnostic:  0.00951232
                                                                       D1 diagnostic:  0.02005172
                                                                       D2 diagnostic:  0.13699066 (internal)

 Adding energy correction from Wij-K(Fij), methodcc=6  factor= 1.0

  CCSD correlation energy              -0.453829170500
  MP2-F12 correction (uncoupled)       -0.038501449350
  C*T doubles correction               -0.001183273317
  f12b correction                       0.007101755461


 Total CPU time for triples:     20.63 sec


 RESULTS
 =======

  Reference energy                   -115.159970780973
  F12 singles correction               -0.001395746741

 F12 singles corrections added to reference energy

  New reference energy               -115.161366527713

  F12a singlet correction              -0.035771673990
  F12a triplet correction              -0.003913048677
  F12a total correction                -0.039684722667

 F12a corrections for ansatz F12/3C(FIX) added to CCSD energy

  CCSD-F12a singlet pair energy        -0.351613840282
  CCSD-F12a triplet pair energy        -0.141899684806
  CCSD-F12a correlation energy         -0.493513893166

  Triples (T) contribution             -0.016097961871
  Total correlation energy             -0.509611855037

  CCSD-F12a total energy             -115.654880420880
  CCSD[T]-F12a energy                -115.671538993177
  CCSD-T-F12a energy                 -115.670730640891
 !CCSD(T)-F12a total energy          -115.670978382751

 F12b corrections for ansatz F12/3C(FIX) added to CCSD(T)-F12a energy

  CCSD-F12b singlet pair energy        -0.344973519991
  CCSD-F12b triplet pair energy        -0.141438249635
  CCSD-F12b correlation energy         -0.486412137706

  Triples (T) contribution             -0.016097961871
  Total correlation energy             -0.502510099577

  CCSD-F12b total energy             -115.647778665419
  CCSD[T]-F12b energy                -115.664437237716
  CCSD-T-F12b energy                 -115.663628885430
 !CCSD(T)-F12b total energy          -115.663876627290

 Timing summary (sec):

 STEP                 CPU(USER)    SYS     CPU(TOT)    WALL
 Transformation          6.35      0.12      6.47      1.10
 CCSD iterations        51.88      2.81     54.69      7.91
 Triples                20.63      0.30     20.93      3.88
 MP2-F12                17.80      0.38     18.18     10.52
 F12b energy             5.23      0.27      5.50      0.80

 Program statistics:

 Available memory in ccsd:               499999650
 Min. memory needed in ccsd:               1149135
 Max. memory used in ccsd:                 1443104
 Max. memory used in cckext:               1888566 ( 9 integral passes)



 **********************************************************************************************************************************
 DATASETS  * FILE   NREC   LENGTH (MB)   RECORD NAMES
              1      24      368.61       500      610      700      900      950      970     1000      129      960     1700   
                                          VAR    BASINP    GEOM    SYMINP    ZMAT    AOBASIS   BASIS     P2S    ABASIS    OPER   
                                         1101     1401     1411     1412     1650     1100     1400     1410     1200     1210   
                                          SR      EKINR    POTR     PVPR    MOLCAS      S      EKIN      POT      H0       H01  
                                         1300     1080     1600     1380   
                                         ERIS     AOSYM     SMH     JKOP   

              2       7        0.91       700     1000      520     2100     7360     7350     7000   
                                         GEOM     BASIS   MCVARS     RHF    F12ABS    EF12   

 PROGRAMS   *        TOTAL   CCSD(T)   MP2-F12    HF-SCF       INT
 CPU TIMES  *       147.32    101.92     21.17     12.04     12.07
 REAL TIME  *        44.54 SEC
 DISK USED  *         1.06 GB
 **********************************************************************************************************************************

 CCSD(T)-F12/cc-pVTZ-F12 energy=   -115.663876627290

     CCSD(T)-F12         MP2-F12          HF-SCF
   -115.66387663   -115.64537689   -115.15997078
 **********************************************************************************************************************************
 Molpro calculation terminated
