
 Working directory              : /tmp/asmola/molpro.GykT32bvL4/
 Global scratch directory       : /tmp/asmola/molpro.GykT32bvL4/
 Wavefunction directory         : /home/asmola/wfu/
 Main file repository           : /tmp/asmola/molpro.GykT32bvL4/

 id        : uclcc

 Nodes                        nprocs
 vincent.theory.phys.ucl.ac.uk    1
 GA implementation: MPI file
 GA implementation (serial work in mppx): MPI file

 Using customized tuning parameters: mindgm=1; mindgv=20; mindgc=4; mindgr=1; noblas=0; minvec=7
 default implementation of scratch files=df  


 Variables initialized (1015), CPU time= 0.01 sec
 ***,Methanol Ground State Energy with CCSD(T)-F12 and cc-pVTZ-F12
 memory,500,m;
 
 symmetry,nosym
 geometry={angstrom
 c
 o , 1, rco
 h , 2, roh, 1, acoh
 h1, 1, rch1, 2, aoch1, 3, ahh1
 h2, 1, rch2, 2, aoch2, 3, ahh2
 h3, 1, rch3, 2, aoch3, 3, ahh3
 }
 
                                                ! Specify the initial values of the internal coordinates (in Angstroms and degrees)
 re1= 1.4296
 re2= 0.95887
 re3= 1.092294
 re4= 1.092294
 re5= 1.092294
 ae1= 107.9812
 ae2= 110.6646
 ae3= 110.6646
 ae4= 110.6646
 ahh1=60.00
 ahh2=180.00
 ahh3=300.00
 
 rco= 1.4296
 roh= 0.95887
 rch1= 1.092294
 rch2= 1.092294
 rch3= 1.092294
 acoh= 107.9812
 aoch1= 110.6646
 aoch2= 110.6646
 aoch3= 110.6646
 Sa = 0.00
 Sb = 0.00
 tau = 0
 ahh1 = tau+1.0/3.0*sqrt(2.0)*Sb
 ahh2 = 120.0+tau-1.0/6.0*sqrt(2.0)*Sb-1.0/6.0*sqrt(6.0)*Sa
 ahh3 = 240.0+tau+1.0/6.0*sqrt(6.0)*Sa-1.0/6.0*sqrt(2.0)*Sb
 
                                                                                 ! Use the cc-pVTZ-F12 basis set
 basis=cc-pVTZ-F12
 
 hf
 
                                                                                 ! Loop over tau values
 do i = 0, 60, 5
     tau = i
     ahh1 = tau+1.0/3.0*sqrt(2.0)*Sb
     ahh2 = 120.0+tau-1.0/6.0*sqrt(2.0)*Sb-1.0/6.0*sqrt(6.0)*Sa
     ahh3 = 240.0+tau-1.0/6.0*sqrt(2.0)*Sb-1.0/6.0*sqrt(6.0)*Sa
 
     geometry={angstrom
     c
     o , 1, rco
     h , 2, roh, 1, acoh
     h1, 1, rch1, 2, aoch1, 3, ahh1
     h2, 1, rch2, 2, aoch2, 3, ahh2
     h3, 1, rch3, 2, aoch3, 3, ahh3
     }
 
     hf
     {optg,savexyz=CH3OH_MEP.xyz;
     active,rco,roh,rch1,rch2,rch3,acoh,aoch1,aoch2,aoch3;
     }
 enddo
 
 Commands initialized (818), CPU time= 0.00 sec, 672 directives.
 Default parameters read. Elapsed time= 0.05 sec

 Checking input...
 Passed
1


                                         ***  PROGRAM SYSTEM MOLPRO  ***
                                       Copyright, TTI GmbH Stuttgart, 2015
                                    Version 2022.1 linked Mar  3 2022 23:20:00


 **********************************************************************************************************************************
 LABEL *   Methanol Ground State Energy with CCSD(T)-F12 and cc-pVTZ-F12                 
  (8 PROC) 64 bit serial version                                                         DATE: 27-Sep-24          TIME: 15:01:30  
 **********************************************************************************************************************************

 SHA1:             31073afc4d8441e10870424e0d77336a33bc4286
 **********************************************************************************************************************************

 Memory per process:       500 MW
 Total memory per node:    500 MW

 GA preallocation disabled
 GA check disabled

 Variable memory set to 500.0 MW

 ZSYMEL=NOSYM

 SETTING RE1            =         1.42960000                                  
 SETTING RE2            =         0.95887000                                  
 SETTING RE3            =         1.09229400                                  
 SETTING RE4            =         1.09229400                                  
 SETTING RE5            =         1.09229400                                  
 SETTING AE1            =       107.98120000                                  
 SETTING AE2            =       110.66460000                                  
 SETTING AE3            =       110.66460000                                  
 SETTING AE4            =       110.66460000                                  
 SETTING AHH1           =        60.00000000                                  
 SETTING AHH2           =       180.00000000                                  
 SETTING AHH3           =       300.00000000                                  
 SETTING RCO            =         1.42960000                                  
 SETTING ROH            =         0.95887000                                  
 SETTING RCH1           =         1.09229400                                  
 SETTING RCH2           =         1.09229400                                  
 SETTING RCH3           =         1.09229400                                  
 SETTING ACOH           =       107.98120000                                  
 SETTING AOCH1          =       110.66460000                                  
 SETTING AOCH2          =       110.66460000                                  
 SETTING AOCH3          =       110.66460000                                  
 SETTING SA             =      0.0000000D+00                                  
 SETTING SB             =      0.0000000D+00                                  
 SETTING TAU            =      0.0000000D+00                                  
 SETTING AHH1           =      0.0000000D+00                                  
 SETTING AHH2           =       120.00000000                                  
 SETTING AHH3           =       240.00000000                                  
 SETTING BASIS          =    CC-PVTZ-F12


 Recomputing integrals since basis changed


 Using spherical harmonics

 Library entry C      S cc-pVTZ-F12          selected for orbital group  1
 Library entry C      P cc-pVTZ-F12          selected for orbital group  1
 Library entry C      D cc-pVTZ-F12          selected for orbital group  1
 Library entry C      F cc-pVTZ-F12          selected for orbital group  1
 Library entry O      S cc-pVTZ-F12          selected for orbital group  2
 Library entry O      P cc-pVTZ-F12          selected for orbital group  2
 Library entry O      D cc-pVTZ-F12          selected for orbital group  2
 Library entry O      F cc-pVTZ-F12          selected for orbital group  2
 Library entry H      S cc-pVTZ-F12          selected for orbital group  3
 Library entry H      P cc-pVTZ-F12          selected for orbital group  3
 Library entry H      D cc-pVTZ-F12          selected for orbital group  3


 PROGRAM * SEWARD (Integral evaluation for generally contracted gaussian basis sets)     Author: Roland Lindh, 1990

 Geometry written to block  1 of record 700

 Orientation using atomic masses  
 Molecule type: Asymmetric top
 Rotational constants:      23.6333757     24.5065391    128.9114827 GHz  (calculated with average atomic masses)

 Point group  C1  



 ATOMIC COORDINATES

 NR  ATOM    CHARGE       X              Y              Z

   1  C       6.00   -0.000000000    0.021622205   -1.383678043
   2  O       8.00   -0.000000000   -0.126383340    1.313817109
   3  H       1.00   -0.000000000    1.563882378    1.966773405
   4  H1      1.00   -0.000000000    1.989963389   -2.005202382
   5  H2      1.00    1.672584827   -0.902687659   -2.163915696
   6  H3      1.00   -1.672584827   -0.902687659   -2.163915696

 Bond lengths in Bohr (Angstrom)

 1-2  2.701552468  1-4  2.064136508  1-5  2.064136508  1-6  2.064136508  2-3  1.812001689
     ( 1.429600000)     ( 1.092294000)     ( 1.092294000)     ( 1.092294000)     ( 0.958870000)

 Bond angles

  1-2-3  107.98120000   2-1-4  110.66460000   2-1-5  110.66460000   2-1-6  110.66460000

  4-1-5  108.25192757   4-1-6  108.25192757   5-1-6  108.25192757

 NUCLEAR CHARGE:                   18
 NUMBER OF PRIMITIVE AOS:         228
 NUMBER OF SYMMETRY AOS:          206
 NUMBER OF CONTRACTIONS:          178   (  178A   )
 NUMBER OF INNER CORE ORBITALS:     0   (    0A   )
 NUMBER OF OUTER CORE ORBITALS:     2   (    2A   )
 NUMBER OF VALENCE ORBITALS:       12   (   12A   )


 NUCLEAR REPULSION ENERGY   40.16647980


 Eigenvalues of metric

         1 0.879E-04 0.193E-03 0.306E-03 0.325E-03 0.458E-03 0.504E-03 0.562E-03 0.569E-03


 Contracted 2-electron integrals neglected if value below      1.0D-11
 AO integral compression algorithm  1   Integral accuracy      1.0D-11

     505.938 MB (compressed) written to integral file ( 42.4%)


 NUMBER OF SORTED TWO-ELECTRON INTEGRALS:  126906346.     BUFFER LENGTH:  32768
 NUMBER OF SEGMENTS:   8  SEGMENT LENGTH:   15999503      RECORD LENGTH: 524288

 Memory used in sort:      16.56 MW

 SORT1 READ   149034713. AND WROTE   100381746. INTEGRALS IN    291 RECORDS. CPU TIME:     0.88 SEC, REAL TIME:     1.26 SEC
 SORT2 READ   100381746. AND WROTE   126906346. INTEGRALS IN   1930 RECORDS. CPU TIME:     1.08 SEC, REAL TIME:     1.37 SEC

 FILE SIZES:   FILE 1:   537.2 MBYTE,  FILE 4:  1220.6 MBYTE,   TOTAL:   1757.7 MBYTE

 OPERATOR DM      FOR CENTER  0  COORDINATES:    0.000000    0.000000    0.000000


 **********************************************************************************************************************************
 DATASETS  * FILE   NREC   LENGTH (MB)   RECORD NAMES
              1      19      451.51       500      610      700      900      950      970     1000      129      960     1100   
                                          VAR    BASINP    GEOM    SYMINP    ZMAT    AOBASIS   BASIS     P2S    ABASIS      S 
                                         1400     1410     1200     1210     1080     1600     1650     1300     1700   
                                           T        V       H0       H01     AOSYM     SMH    MOLCAS    ERIS     OPER   

 PROGRAMS   *        TOTAL       INT
 CPU TIMES  *        17.55     17.45
 REAL TIME  *         6.94 SEC
 DISK USED  *         1.64 GB
 **********************************************************************************************************************************


 Program * Restricted Hartree-Fock

 Orbital guess generated from atomic densities. Full valence occupancy:   14

 Initial occupancy:   9

 NELEC=   18   SYM=1   MS2= 0   THRE=1.0D-08   THRD=1.0D-06   THRG=1.0D-06  HFMA2=F  DIIS_START=2   DIIS_MAX=10   DIIS_INCORE=F

 Level shifts:    0.00 (CLOSED)    0.00 (OPEN)    0.30 (GAP_MIN)

 ITER           ETOT              DE          GRAD        DDIFF     DIIS  NEXP   TIME(IT)  TIME(TOT)  DIAG
   1     -115.05993461    -115.05993461     0.00D+00     0.48D-01     0     0       7.17     14.31    start
   2     -115.08839153      -0.02845691     0.51D-02     0.49D-02     1     0       8.20     22.51    diag
   3     -115.09603637      -0.00764485     0.28D-02     0.17D-02     2     0       7.19     29.70    diag
   4     -115.09656050      -0.00052413     0.54D-03     0.43D-03     3     0       8.21     37.91    diag
   5     -115.09659323      -0.00003273     0.11D-03     0.11D-03     4     0       7.12     45.03    diag
   6     -115.09659458      -0.00000134     0.19D-04     0.27D-04     5     0       7.17     52.20    diag
   7     -115.09659463      -0.00000005     0.38D-05     0.55D-05     6     0       7.22     59.42    diag
   8     -115.09659463      -0.00000000     0.96D-06     0.12D-05     7     0       7.26     66.68    fixocc
   9     -115.09659463      -0.00000000     0.31D-06     0.41D-06     8     0       7.49     74.17    diag
  10     -115.09659463      -0.00000000     0.75D-07     0.95D-07     0     0       7.09     81.26    diag/orth

 Final occupancy:   9

 !RHF STATE 1.1 Energy               -115.096594631822
  RHF One-electron energy            -236.593272119747
  RHF Two-electron energy              81.330197685525
  RHF Kinetic energy                  114.951883700274
  RHF Nuclear energy                   40.166479802399
  RHF Virial quotient                  -1.001258882646

 !RHF STATE 1.1 Dipole moment           0.00000000     0.61697008    -0.41109238
 Dipole moment /Debye                   0.00000000     1.56818152    -1.04489261

 Orbital energies:

           1.1          2.1          3.1          4.1          5.1          6.1          7.1          8.1          9.1         10.1
    -20.555875   -11.272168    -1.354105    -0.925857    -0.690351    -0.617131    -0.596102    -0.503574    -0.451282     0.054559

          11.1
      0.065003


 HOMO      9.1    -0.451282 =     -12.2800eV
 LUMO     10.1     0.054559 =       1.4846eV
 LUMO-HOMO         0.505841 =      13.7646eV

 Orbitals saved in record  2100.2


 **********************************************************************************************************************************
 DATASETS  * FILE   NREC   LENGTH (MB)   RECORD NAMES
              1      19      451.51       500      610      700      900      950      970     1000      129      960     1100   
                                          VAR    BASINP    GEOM    SYMINP    ZMAT    AOBASIS   BASIS     P2S    ABASIS      S 
                                         1400     1410     1200     1210     1080     1600     1650     1300     1700   
                                           T        V       H0       H01     AOSYM     SMH    MOLCAS    ERIS     OPER   

              2       4        0.92       700     1000      520     2100   
                                         GEOM     BASIS   MCVARS     RHF  

 PROGRAMS   *        TOTAL    HF-SCF       INT
 CPU TIMES  *        98.86     81.31     17.45
 REAL TIME  *        20.08 SEC
 DISK USED  *         1.64 GB
 **********************************************************************************************************************************

 DO I                   =         0.00000000   
 SETTING TAU            =      0.0000000D+00                                  
 SETTING AHH1           =      0.0000000D+00                                  
 SETTING AHH2           =       120.00000000                                  
 SETTING AHH3           =       240.00000000                                  


 Recomputing integrals since symmetry changed


 Using spherical harmonics

 Library entry C      S cc-pVTZ-F12          selected for orbital group  1
 Library entry C      P cc-pVTZ-F12          selected for orbital group  1
 Library entry C      D cc-pVTZ-F12          selected for orbital group  1
 Library entry C      F cc-pVTZ-F12          selected for orbital group  1
 Library entry O      S cc-pVTZ-F12          selected for orbital group  2
 Library entry O      P cc-pVTZ-F12          selected for orbital group  2
 Library entry O      D cc-pVTZ-F12          selected for orbital group  2
 Library entry O      F cc-pVTZ-F12          selected for orbital group  2
 Library entry H      S cc-pVTZ-F12          selected for orbital group  3
 Library entry H      P cc-pVTZ-F12          selected for orbital group  3
 Library entry H      D cc-pVTZ-F12          selected for orbital group  3


 PROGRAM * SEWARD (Integral evaluation for generally contracted gaussian basis sets)     Author: Roland Lindh, 1990

 Geometry written to block  1 of record 701

 Orientation using atomic masses  
 Molecule type: Asymmetric top
 Symmetry elements: X
 Rotational constants:      23.6333757     24.5065391    128.9114827 GHz  (calculated with average atomic masses)

 Point group  Cs  



 ATOMIC COORDINATES

 NR  ATOM    CHARGE       X              Y              Z

   1  C       6.00    0.000000000    0.021622205   -1.383678043
   2  O       8.00    0.000000000   -0.126383340    1.313817109
   3  H       1.00    0.000000000    1.563882378    1.966773405
   4  H1      1.00    0.000000000    1.989963389   -2.005202382
   5  H2      1.00    1.672584827   -0.902687659   -2.163915696
   6  H3      1.00   -1.672584827   -0.902687659   -2.163915696

 Bond lengths in Bohr (Angstrom)

 1-2  2.701552468  1-4  2.064136508  1-5  2.064136508  1-6  2.064136508  2-3  1.812001689
     ( 1.429600000)     ( 1.092294000)     ( 1.092294000)     ( 1.092294000)     ( 0.958870000)

 Bond angles

  1-2-3  107.98120000   2-1-4  110.66460000   2-1-5  110.66460000   2-1-6  110.66460000

  4-1-5  108.25192757   4-1-6  108.25192757   5-1-6  108.25192757

 NUCLEAR CHARGE:                   18
 NUMBER OF PRIMITIVE AOS:         228
 NUMBER OF SYMMETRY AOS:          206
 NUMBER OF CONTRACTIONS:          178   (  114A'  +   64A"  )
 NUMBER OF INNER CORE ORBITALS:     0   (    0A'  +    0A"  )
 NUMBER OF OUTER CORE ORBITALS:     2   (    2A'  +    0A"  )
 NUMBER OF VALENCE ORBITALS:       12   (    9A'  +    3A"  )

 SYMMETRY CHANGED: INITIALIZING OCCUPATION


 NUCLEAR REPULSION ENERGY   40.16647980

 Eigenvalues of metric

         1 0.879E-04 0.193E-03 0.306E-03 0.458E-03 0.504E-03 0.562E-03 0.616E-03 0.629E-03
         2 0.325E-03 0.569E-03 0.688E-03 0.183E-02 0.370E-02 0.491E-02 0.649E-02 0.867E-02


 Contracted 2-electron integrals neglected if value below      1.0D-11
 AO integral compression algorithm  1   Integral accuracy      1.0D-11

     332.923 MB (compressed) written to integral file ( 53.4%)


 NUMBER OF SORTED TWO-ELECTRON INTEGRALS:   64554730.     BUFFER LENGTH:  32768
 NUMBER OF SEGMENTS:   5  SEGMENT LENGTH:   15997996      RECORD LENGTH: 524288

 Memory used in sort:      16.56 MW

 SORT1 READ    77854807. AND WROTE    63570591. INTEGRALS IN    184 RECORDS. CPU TIME:     0.62 SEC, REAL TIME:     0.87 SEC
 SORT2 READ    63570591. AND WROTE    64554730. INTEGRALS IN   1270 RECORDS. CPU TIME:     0.70 SEC, REAL TIME:     0.90 SEC

 FILE SIZES:   FILE 1:   364.1 MBYTE,  FILE 4:   771.8 MBYTE,   TOTAL:   1135.9 MBYTE

 OPERATOR DM      FOR CENTER  0  COORDINATES:    0.000000    0.000000    0.000000


 **********************************************************************************************************************************
 DATASETS  * FILE   NREC   LENGTH (MB)   RECORD NAMES
              1      20      297.46       500      610      700      701      900      950      970     1001      129      960   
                                          VAR    BASINP    GEOM     GEOM    SYMINP    ZMAT    AOBASIS   BASIS     P2S    ABASIS    
                                         1100     1400     1410     1200     1210     1080     1600     1650     1300     1700   
                                           S        T        V       H0       H01     AOSYM     SMH    MOLCAS    ERIS     OPER   

              2       6        1.56       700     1000      520     2100      701     1001   
                                         GEOM     BASIS   MCVARS     RHF     GEOM     BASIS   

 PROGRAMS   *        TOTAL       INT    HF-SCF       INT
 CPU TIMES  *       110.57     11.70     81.31     17.45
 REAL TIME  *        25.15 SEC
 DISK USED  *         1.64 GB
 **********************************************************************************************************************************


 Program * Restricted Hartree-Fock

 Orbital guess generated from atomic densities. Full valence occupancy:   11   3

 Initial occupancy:   7   2

 NELEC=   18   SYM=1   MS2= 0   THRE=1.0D-08   THRD=1.0D-06   THRG=1.0D-06  HFMA2=F  DIIS_START=2   DIIS_MAX=10   DIIS_INCORE=F

 Level shifts:    0.00 (CLOSED)    0.00 (OPEN)    0.30 (GAP_MIN)

 ITER           ETOT              DE          GRAD        DDIFF     DIIS  NEXP   TIME(IT)  TIME(TOT)  DIAG
   1     -115.05993461    -115.05993461     0.00D+00     0.66D-01     0     0       1.24      2.36    start
   2     -115.08839153      -0.02845691     0.67D-02     0.66D-02     1     0       1.17      3.53    diag
   3     -115.09603637      -0.00764485     0.37D-02     0.23D-02     2     0       1.32      4.85    diag
   4     -115.09656050      -0.00052413     0.72D-03     0.59D-03     3     0       1.16      6.01    diag
   5     -115.09659323      -0.00003273     0.14D-03     0.15D-03     4     0       1.26      7.27    diag
   6     -115.09659457      -0.00000134     0.26D-04     0.36D-04     5     0       1.17      8.44    diag
   7     -115.09659463      -0.00000005     0.51D-05     0.75D-05     6     0       1.16      9.60    diag
   8     -115.09659463      -0.00000000     0.13D-05     0.16D-05     7     0       1.25     10.85    fixocc
   9     -115.09659463      -0.00000000     0.41D-06     0.56D-06     8     0       1.16     12.01    diag
  10     -115.09659463      -0.00000000     0.99D-07     0.13D-06     0     0       1.33     13.34    diag/orth

 Final occupancy:   7   2

 !RHF STATE 1.1 Energy               -115.096594631611
  RHF One-electron energy            -236.593272118294
  RHF Two-electron energy              81.330197684284
  RHF Kinetic energy                  114.951883691227
  RHF Nuclear energy                   40.166479802399
  RHF Virial quotient                  -1.001258882723

 !RHF STATE 1.1 Dipole moment           0.00000000     0.61697008    -0.41109238
 Dipole moment /Debye                   0.00000000     1.56818152    -1.04489260

 Orbital energies:

           1.1          2.1          3.1          4.1          5.1          6.1          7.1          8.1          9.1
    -20.555875   -11.272168    -1.354105    -0.925857    -0.690351    -0.596102    -0.503574     0.054559     0.065003

           1.2          2.2          3.2          4.2
     -0.617131    -0.451282     0.072560     0.182199


 HOMO      2.2    -0.451282 =     -12.2800eV
 LUMO      8.1     0.054559 =       1.4846eV
 LUMO-HOMO         0.505841 =      13.7646eV

 Orbitals saved in record  2101.2


 **********************************************************************************************************************************
 DATASETS  * FILE   NREC   LENGTH (MB)   RECORD NAMES
              1      20      297.46       500      610      700      701      900      950      970     1001      129      960   
                                          VAR    BASINP    GEOM     GEOM    SYMINP    ZMAT    AOBASIS   BASIS     P2S    ABASIS    
                                         1100     1400     1410     1200     1210     1080     1600     1650     1300     1700   
                                           S        T        V       H0       H01     AOSYM     SMH    MOLCAS    ERIS     OPER   

              2       7        1.92       700     1000      520     2100      701     1001     2101   
                                         GEOM     BASIS   MCVARS     RHF     GEOM     BASIS     RHF  

 PROGRAMS   *        TOTAL    HF-SCF       INT    HF-SCF       INT
 CPU TIMES  *       123.94     13.36     11.70     81.31     17.45
 REAL TIME  *        29.30 SEC
 DISK USED  *         1.64 GB
 **********************************************************************************************************************************


 PROGRAM * OPT (Geometry optimization)     Authors: F. Eckert and H.-J. Werner


 BFGS update of hessian

 *** Long output written to logfile /scratch/vol1/asmola/Methanol/MolPro/RunMolPro/CH3OH_MEP_2.log ***


 Geometry optimization using default procedure for command HF-SCF

 Inactive variables:    AHH1 AHH2 AHH3

 Active variables:      RCO ROH ACOH RCH1 AOCH1 RCH2
                        AOCH2 RCH3 AOCH3

 Geometry written to block  1 of record 701

 XYZ inputs for each point on the optimization path will be saved in files ch3oh_mep_xx.xyz

 Making model hessian for Z-matrix coordinates

 Entering Rational Function Geometry Optimization

 ITER.   ENERGY(OLD)    ENERGY(NEW)      DE          GRADMAX     GRADNORM    GRADRMS     STEPMAX     STEPLEN     STEPRMS   CPU-time
   1  -115.09659463  -115.09793245    -0.00133782  0.02435596  0.03495143  0.01165048  0.03405551  0.07031235  0.00781248     78.47
   2  -115.09793245  -115.09807828    -0.00014582  0.00652062  0.00965077  0.00321692  0.02126207  0.03212936  0.00356993    156.34
   3  -115.09807828  -115.09808888    -0.00001060  0.00200668  0.00306766  0.00102255  0.00381167  0.00568665  0.00063185    233.32
   4  -115.09808888  -115.09809075    -0.00000187  0.00068799  0.00117391  0.00039130  0.00220764  0.00336208  0.00037356    310.29
   5  -115.09809075  -115.09809076    -0.00000001  0.00007910  0.00011432  0.00003811  0.00014761  0.00026142  0.00002905    385.20

 END OF GEOMETRY OPTIMIZATION.

 Optimized variables
 RCO=                 1.40152916 ANGSTROM
 ROH=                 0.93657758 ANGSTROM
 ACOH=              110.80030521 DEGREE
 RCH1=                1.08404894 ANGSTROM
 AOCH1=             111.89895353 DEGREE
 RCH2=                1.08263397 ANGSTROM
 AOCH2=             109.80114516 DEGREE
 RCH3=                1.08263397 ANGSTROM
 AOCH3=             109.80114516 DEGREE

 **********************************************************************************************************************************

 Geometry written to block  1 of record 701

 Recomputing wavefunction for reoriented structure

 Current geometry (xyz format, in Angstrom)


 Dump information in style XYZ to ch3oh_mep.xyz                                                                   

    6
 HF-SCF001/CC-PVTZ-F12  ENERGY=-115.09809076
 C          0.0000000000        0.0117559904       -0.7189901551
 O          0.0000000000       -0.0640284631        0.6804885665
 H          0.0000000000        0.7922416013        1.0599344065
 H          0.0000000000        1.0379743586       -1.0683294893
 H          0.8821526592       -0.4769788291       -1.1127429597
 H         -0.8821526592       -0.4769788291       -1.1127429597

 **********************************************************************************************************************************


 **********************************************************************************************************************************
 DATASETS  * FILE   NREC   LENGTH (MB)   RECORD NAMES
              1      20      298.10       500      610      700      701      900      950      970     1001      129      960   
                                          VAR    BASINP    GEOM     GEOM    SYMINP    ZMAT    AOBASIS   BASIS     P2S    ABASIS    
                                         1100     1400     1410     1200     1210     1080     1600     1650     1300     1700   
                                           S        T        V       H0       H01     AOSYM     SMH    MOLCAS    ERIS     OPER   

              2       7        1.92       700     1000      520     2100      701     1001     2101   
                                         GEOM     BASIS   MCVARS     RHF     GEOM     BASIS     RHF  

 PROGRAMS   *        TOTAL      OPTG    HF-SCF       INT    HF-SCF       INT
 CPU TIMES  *       511.53    387.59     13.36     11.70     81.31     17.45
 REAL TIME  *       118.29 SEC
 DISK USED  *         1.64 GB
 **********************************************************************************************************************************

 DO I                   =         5.00000000   
 SETTING TAU            =         5.00000000                                  
 SETTING AHH1           =         5.00000000                                  
 SETTING AHH2           =       125.00000000                                  
 SETTING AHH3           =       245.00000000                                  


 Recomputing integrals since geometry and symmetry changed


 Using spherical harmonics

 Library entry C      S cc-pVTZ-F12          selected for orbital group  1
 Library entry C      P cc-pVTZ-F12          selected for orbital group  1
 Library entry C      D cc-pVTZ-F12          selected for orbital group  1
 Library entry C      F cc-pVTZ-F12          selected for orbital group  1
 Library entry O      S cc-pVTZ-F12          selected for orbital group  2
 Library entry O      P cc-pVTZ-F12          selected for orbital group  2
 Library entry O      D cc-pVTZ-F12          selected for orbital group  2
 Library entry O      F cc-pVTZ-F12          selected for orbital group  2
 Library entry H      S cc-pVTZ-F12          selected for orbital group  3
 Library entry H      P cc-pVTZ-F12          selected for orbital group  3
 Library entry H      D cc-pVTZ-F12          selected for orbital group  3


 PROGRAM * SEWARD (Integral evaluation for generally contracted gaussian basis sets)     Author: Roland Lindh, 1990

 Geometry written to block  1 of record 700

 Orientation using atomic masses  
 Molecule type: Asymmetric top
 Rotational constants:      24.4838819     25.3130158    132.5344860 GHz  (calculated with average atomic masses)

 Point group  C1  



 ATOMIC COORDINATES

 NR  ATOM    CHARGE       X              Y              Z

   1  C       6.00   -0.000043094    0.022221535   -1.358694493
   2  O       8.00   -0.000143595   -0.121007413    1.285936081
   3  H       1.00    0.005023431    1.497095723    2.002995008
   4  H1      1.00    0.171585984    1.953746525   -2.019250886
   5  H2      1.00    1.573311099   -1.047707482   -2.110652193
   6  H3      1.00   -1.747127655   -0.747140213   -2.094500134

 Bond lengths in Bohr (Angstrom)

 1-2  2.648506261  1-4  2.048555607  1-5  2.045881693  1-6  2.045881693  2-3  1.769875126
     ( 1.401529156)     ( 1.084048942)     ( 1.082633968)     ( 1.082633968)     ( 0.936577583)

 Bond angles

  1-2-3  110.80030521   2-1-4  111.89895353   2-1-5  109.80114516   2-1-6  109.80114516

  4-1-5  108.06798889   4-1-6  108.06798889   5-1-6  109.13929063

 NUCLEAR CHARGE:                   18
 NUMBER OF PRIMITIVE AOS:         228
 NUMBER OF SYMMETRY AOS:          206
 NUMBER OF CONTRACTIONS:          178   (  178A   )
 NUMBER OF INNER CORE ORBITALS:     0   (    0A   )
 NUMBER OF OUTER CORE ORBITALS:     2   (    2A   )
 NUMBER OF VALENCE ORBITALS:       12   (   12A   )

 SYMMETRY CHANGED: INITIALIZING OCCUPATION


 NUCLEAR REPULSION ENERGY   40.81667389

 Eigenvalues of metric

         1 0.849E-04 0.175E-03 0.296E-03 0.317E-03 0.450E-03 0.493E-03 0.558E-03 0.564E-03


 Contracted 2-electron integrals neglected if value below      1.0D-11
 AO integral compression algorithm  1   Integral accuracy      1.0D-11

     607.126 MB (compressed) written to integral file ( 50.9%)


 NUMBER OF SORTED TWO-ELECTRON INTEGRALS:  126906346.     BUFFER LENGTH:  32768
 NUMBER OF SEGMENTS:   8  SEGMENT LENGTH:   15999503      RECORD LENGTH: 524288

 Memory used in sort:      16.56 MW

 SORT1 READ   149034713. AND WROTE   124781210. INTEGRALS IN    360 RECORDS. CPU TIME:     1.00 SEC, REAL TIME:     1.47 SEC
 SORT2 READ   124781210. AND WROTE   126906346. INTEGRALS IN   2316 RECORDS. CPU TIME:     1.14 SEC, REAL TIME:     1.50 SEC

 FILE SIZES:   FILE 1:   638.6 MBYTE,  FILE 4:  1510.0 MBYTE,   TOTAL:   2148.6 MBYTE

 OPERATOR DM      FOR CENTER  0  COORDINATES:    0.000000    0.000000    0.000000


 **********************************************************************************************************************************
 DATASETS  * FILE   NREC   LENGTH (MB)   RECORD NAMES
              1      20      535.08       500      610      701      700      900      950      970     1000      129      960   
                                          VAR    BASINP    GEOM     GEOM    SYMINP    ZMAT    AOBASIS   BASIS     P2S    ABASIS    
                                         1100     1400     1410     1200     1210     1080     1600     1650     1300     1700   
                                           S        T        V       H0       H01     AOSYM     SMH    MOLCAS    ERIS     OPER   

              2       7        1.92       700     1000      520     2100      701     1001     2101   
                                         GEOM     BASIS   MCVARS     RHF     GEOM     BASIS     RHF  

 PROGRAMS   *        TOTAL       INT      OPTG    HF-SCF       INT    HF-SCF       INT
 CPU TIMES  *       530.28     18.74    387.59     13.36     11.70     81.31     17.45
 REAL TIME  *       125.67 SEC
 DISK USED  *         2.00 GB
 **********************************************************************************************************************************


 Program * Restricted Hartree-Fock

 Orbital guess generated from atomic densities. Full valence occupancy:   14

 Initial occupancy:   9

 NELEC=   18   SYM=1   MS2= 0   THRE=1.0D-08   THRD=1.0D-07   THRG=1.0D-07  HFMA2=F  DIIS_START=2   DIIS_MAX=10   DIIS_INCORE=F

 Level shifts:    0.00 (CLOSED)    0.00 (OPEN)    0.30 (GAP_MIN)

 ITER           ETOT              DE          GRAD        DDIFF     DIIS  NEXP   TIME(IT)  TIME(TOT)  DIAG
   1     -115.06211995    -115.06211995     0.00D+00     0.49D-01     0     0       7.80     15.15    start
   2     -115.09045345      -0.02833349     0.51D-02     0.49D-02     1     0       7.46     22.61    diag
   3     -115.09757589      -0.00712245     0.27D-02     0.16D-02     2     0       8.39     31.00    diag
   4     -115.09808131      -0.00050541     0.53D-03     0.43D-03     3     0       7.40     38.40    diag
   5     -115.09811088      -0.00002957     0.10D-03     0.11D-03     4     0       7.32     45.72    diag
   6     -115.09811204      -0.00000115     0.18D-04     0.26D-04     5     0       7.46     53.18    diag
   7     -115.09811208      -0.00000004     0.35D-05     0.51D-05     6     0       7.44     60.62    diag
   8     -115.09811208      -0.00000000     0.98D-06     0.12D-05     7     0       7.39     68.01    fixocc
   9     -115.09811208      -0.00000000     0.30D-06     0.40D-06     8     0       8.32     76.33    diag
  10     -115.09811208      -0.00000000     0.67D-07     0.11D-06     9     0       7.39     83.72    diag/orth
  11     -115.09811208      -0.00000000     0.12D-07     0.24D-07     9     0       7.60     91.32    diag
  12     -115.09811208      -0.00000000     0.28D-08     0.41D-08     0     0       7.39     98.71    diag

 Final occupancy:   9

 !RHF STATE 1.1 Energy               -115.098112077939
  RHF One-electron energy            -237.841533691787
  RHF Two-electron energy              81.926747724176
  RHF Kinetic energy                  115.091683187599
  RHF Nuclear energy                   40.816673889671
  RHF Virial quotient                  -1.000055858861

 !RHF STATE 1.1 Dipole moment           0.00491013     0.60714098    -0.35662544
 Dipole moment /Debye                   0.01248031     1.54319844    -0.90645146

 Orbital energies:

           1.1          2.1          3.1          4.1          5.1          6.1          7.1          8.1          9.1         10.1
    -20.551660   -11.265811    -1.366960    -0.930956    -0.701217    -0.624644    -0.601992    -0.501465    -0.449315     0.054747

          11.1
      0.065542


 HOMO      9.1    -0.449315 =     -12.2265eV
 LUMO     10.1     0.054747 =       1.4897eV
 LUMO-HOMO         0.504062 =      13.7162eV

 Orbitals saved in record  2102.2


 **********************************************************************************************************************************
 DATASETS  * FILE   NREC   LENGTH (MB)   RECORD NAMES
              1      20      535.08       500      610      701      700      900      950      970     1000      129      960   
                                          VAR    BASINP    GEOM     GEOM    SYMINP    ZMAT    AOBASIS   BASIS     P2S    ABASIS    
                                         1100     1400     1410     1200     1210     1080     1600     1650     1300     1700   
                                           S        T        V       H0       H01     AOSYM     SMH    MOLCAS    ERIS     OPER   

              2       8        2.71       700     1000      520     2100      701     1001     2101     2102   
                                         GEOM     BASIS   MCVARS     RHF     GEOM     BASIS     RHF      RHF  

 PROGRAMS   *        TOTAL    HF-SCF       INT      OPTG    HF-SCF       INT    HF-SCF       INT
 CPU TIMES  *       629.03     98.73     18.74    387.59     13.36     11.70     81.31     17.45
 REAL TIME  *       142.06 SEC
 DISK USED  *         2.00 GB
 **********************************************************************************************************************************


 PROGRAM * OPT (Geometry optimization)     Authors: F. Eckert and H.-J. Werner


 BFGS update of hessian

 Geometry optimization using default procedure for command HF-SCF

 Inactive variables:    AHH1 AHH2 AHH3

 Active variables:      RCO ROH ACOH RCH1 AOCH1 RCH2
                        AOCH2 RCH3 AOCH3

 Geometry written to block  1 of record 700

 XYZ inputs for each point on the optimization path will be saved in files ch3oh_mep_xx.xyz

 Making model hessian for Z-matrix coordinates

 Entering Rational Function Geometry Optimization

 ITER.   ENERGY(OLD)    ENERGY(NEW)      DE          GRADMAX     GRADNORM    GRADRMS     STEPMAX     STEPLEN     STEPRMS   CPU-time
   1  -115.09811208  -115.09811700    -0.00000493  0.00114253  0.00165827  0.00055276  0.00529162  0.00746157  0.00082906    150.61
   2  -115.09811700  -115.09811726    -0.00000026  0.00024437  0.00038076  0.00012692  0.00091189  0.00130484  0.00014498    294.13

 END OF GEOMETRY OPTIMIZATION.

 Optimized variables
 RCO=                 1.40148089 ANGSTROM
 ROH=                 0.93659177 ANGSTROM
 ACOH=              110.78710748 DEGREE
 RCH1=                1.08407808 ANGSTROM
 AOCH1=             111.89323015 DEGREE
 RCH2=                1.08220040 ANGSTROM
 AOCH2=             109.55020469 DEGREE
 RCH3=                1.08308262 ANGSTROM
 AOCH3=             110.04815760 DEGREE

 **********************************************************************************************************************************

 Geometry written to block  1 of record 700

 Recomputing wavefunction for reoriented structure

 Current geometry (xyz format, in Angstrom)


 Dump information in style XYZ to ch3oh_mep.xyz                                                                   

    6
 HF-SCF001/CC-PVTZ-F12  ENERGY=-115.09811726
 C          0.0002009820        0.0117355333       -0.7189636550
 O         -0.0006017332       -0.0640088733        0.6804686695
 H          0.0050646749        0.7923519529        1.0597023444
 H          0.0948025575        1.0335740475       -1.0684230462
 H          0.8318566039       -0.5583684914       -1.1120133234
 H         -0.9245672849       -0.3913663891       -1.1131469314

 **********************************************************************************************************************************


 **********************************************************************************************************************************
 DATASETS  * FILE   NREC   LENGTH (MB)   RECORD NAMES
              1      20      542.09       500      610      701      700      900      950      970     1000      129      960   
                                          VAR    BASINP    GEOM     GEOM    SYMINP    ZMAT    AOBASIS   BASIS     P2S    ABASIS    
                                         1100     1400     1410     1200     1210     1080     1600     1650     1300     1700   
                                           S        T        V       H0       H01     AOSYM     SMH    MOLCAS    ERIS     OPER   

              2       8        2.71       700     1000      520     2100      701     1001     2101     2102   
                                         GEOM     BASIS   MCVARS     RHF     GEOM     BASIS     RHF      RHF  

 PROGRAMS   *        TOTAL      OPTG    HF-SCF       INT      OPTG    HF-SCF       INT    HF-SCF       INT
 CPU TIMES  *       938.75    309.72     98.73     18.74    387.59     13.36     11.70     81.31     17.45
 REAL TIME  *       202.85 SEC
 DISK USED  *         2.01 GB
 **********************************************************************************************************************************

 DO I                   =        10.00000000   
 SETTING TAU            =        10.00000000                                  
 SETTING AHH1           =        10.00000000                                  
 SETTING AHH2           =       130.00000000                                  
 SETTING AHH3           =       250.00000000                                  


 Recomputing integrals since geometry changed


 PROGRAM * SEWARD (Integral evaluation for generally contracted gaussian basis sets)     Author: Roland Lindh, 1990

 Geometry written to block  1 of record 700

 Orientation using atomic masses  
 Molecule type: Asymmetric top
 Rotational constants:      24.4841181     25.3171694    132.5197586 GHz  (calculated with average atomic masses)

 Point group  C1  



 ATOMIC COORDINATES

 NR  ATOM    CHARGE       X              Y              Z

   1  C       6.00    0.000327045    0.022163307   -1.358644566
   2  O       8.00   -0.001241152   -0.120941321    1.285900935
   3  H       1.00    0.014163051    1.497316356    2.002530335
   4  H1      1.00    0.348694009    1.929452699   -2.020228475
   5  H2      1.00    1.465145916   -1.191850059   -2.108816107
   6  H3      1.00   -1.812198907   -0.579279684   -2.094931020

 Bond lengths in Bohr (Angstrom)

 1-2  2.648415055  1-4  2.048610660  1-5  2.045062375  1-6  2.046729523  2-3  1.769901945
     ( 1.401480892)     ( 1.084078075)     ( 1.082200404)     ( 1.083082620)     ( 0.936591775)

 Bond angles

  1-2-3  110.78710748   2-1-4  111.89323015   2-1-5  109.55020469   2-1-6  110.04815760

  4-1-5  108.20489942   4-1-6  107.93882201   5-1-6  109.14185101

 NUCLEAR CHARGE:                   18
 NUMBER OF PRIMITIVE AOS:         228
 NUMBER OF SYMMETRY AOS:          206
 NUMBER OF CONTRACTIONS:          178   (  178A   )
 NUMBER OF INNER CORE ORBITALS:     0   (    0A   )
 NUMBER OF OUTER CORE ORBITALS:     2   (    2A   )
 NUMBER OF VALENCE ORBITALS:       12   (   12A   )


 NUCLEAR REPULSION ENERGY   40.81739449

 Eigenvalues of metric

         1 0.850E-04 0.175E-03 0.297E-03 0.316E-03 0.450E-03 0.493E-03 0.558E-03 0.564E-03


 Contracted 2-electron integrals neglected if value below      1.0D-11
 AO integral compression algorithm  1   Integral accuracy      1.0D-11

     617.087 MB (compressed) written to integral file ( 51.8%)


 NUMBER OF SORTED TWO-ELECTRON INTEGRALS:  126906346.     BUFFER LENGTH:  32768
 NUMBER OF SEGMENTS:   8  SEGMENT LENGTH:   15999503      RECORD LENGTH: 524288

 Memory used in sort:      16.56 MW

 SORT1 READ   149034713. AND WROTE   124901986. INTEGRALS IN    360 RECORDS. CPU TIME:     0.99 SEC, REAL TIME:     1.46 SEC
 SORT2 READ   124901986. AND WROTE   126906346. INTEGRALS IN   2354 RECORDS. CPU TIME:     1.11 SEC, REAL TIME:     1.48 SEC

 FILE SIZES:   FILE 1:   648.6 MBYTE,  FILE 4:  1510.0 MBYTE,   TOTAL:   2158.5 MBYTE

 OPERATOR DM      FOR CENTER  0  COORDINATES:    0.000000    0.000000    0.000000


 **********************************************************************************************************************************
 DATASETS  * FILE   NREC   LENGTH (MB)   RECORD NAMES
              1      20      542.98       500      610      701      700      900      950      970     1000      129      960   
                                          VAR    BASINP    GEOM     GEOM    SYMINP    ZMAT    AOBASIS   BASIS     P2S    ABASIS    
                                         1100     1400     1410     1200     1210     1080     1600     1650     1300     1700   
                                           S        T        V       H0       H01     AOSYM     SMH    MOLCAS    ERIS     OPER   

              2       8        2.71       700     1000      520     2100      701     1001     2101     2102   
                                         GEOM     BASIS   MCVARS     RHF     GEOM     BASIS     RHF      RHF  

 PROGRAMS   *        TOTAL       INT      OPTG    HF-SCF       INT      OPTG    HF-SCF       INT    HF-SCF       INT
 CPU TIMES  *       959.47     20.71    309.72     98.73     18.74    387.59     13.36     11.70     81.31     17.45
 REAL TIME  *       210.62 SEC
 DISK USED  *         2.01 GB
 **********************************************************************************************************************************


 Program * Restricted Hartree-Fock

 Molecular orbitals read from record     2102.2  Type=RHF/CANONICAL  

 Initial occupancy:   9

 NELEC=   18   SYM=1   MS2= 0   THRE=1.0D-08   THRD=1.0D-07   THRG=1.0D-07  HFMA2=F  DIIS_START=2   DIIS_MAX=10   DIIS_INCORE=F

 Level shifts:    0.00 (CLOSED)    0.00 (OPEN)    0.30 (GAP_MIN)

 ITER           ETOT              DE          GRAD        DDIFF     DIIS  NEXP   TIME(IT)  TIME(TOT)  DIAG
   1     -115.09626994    -115.09626994     0.00D+00     0.50D-01     0     0       7.53      7.53    start
   2     -115.09797371      -0.00170377     0.96D-03     0.11D-02     1     0       8.23     15.76    diag
   3     -115.09817930      -0.00020559     0.25D-03     0.28D-03     2     0       7.22     22.98    diag
   4     -115.09818965      -0.00001035     0.47D-04     0.65D-04     3     0       8.23     31.21    diag
   5     -115.09818984      -0.00000019     0.69D-05     0.15D-04     4     0       7.26     38.47    diag
   6     -115.09818985      -0.00000001     0.26D-05     0.40D-05     5     0       8.26     46.73    diag
   7     -115.09818985      -0.00000000     0.69D-06     0.15D-05     6     0       7.22     53.95    diag
   8     -115.09818985      -0.00000000     0.22D-06     0.48D-06     7     0       7.27     61.22    fixocc
   9     -115.09818985      -0.00000000     0.70D-07     0.12D-06     8     0       7.32     68.54    diag
  10     -115.09818985      -0.00000000     0.22D-07     0.39D-07     9     0       8.24     76.78    diag/orth
  11     -115.09818985       0.00000000     0.35D-08     0.68D-08     0     0       7.29     84.07    diag

 Final occupancy:   9

 !RHF STATE 1.1 Energy               -115.098189854788
  RHF One-electron energy            -237.842751744008
  RHF Two-electron energy              81.927167401718
  RHF Kinetic energy                  115.091618361241
  RHF Nuclear energy                   40.817394487502
  RHF Virial quotient                  -1.000057097933

 !RHF STATE 1.1 Dipole moment           0.01165330     0.60579497    -0.35676423
 Dipole moment /Debye                   0.02961973     1.53977724    -0.90680421

 Orbital energies:

           1.1          2.1          3.1          4.1          5.1          6.1          7.1          8.1          9.1         10.1
    -20.551711   -11.265820    -1.367003    -0.930957    -0.701205    -0.624600    -0.602019    -0.501582    -0.449313     0.054751

          11.1
      0.065545


 HOMO      9.1    -0.449313 =     -12.2264eV
 LUMO     10.1     0.054751 =       1.4898eV
 LUMO-HOMO         0.504063 =      13.7163eV

 Orbitals saved in record  2102.2


 **********************************************************************************************************************************
 DATASETS  * FILE   NREC   LENGTH (MB)   RECORD NAMES
              1      20      542.98       500      610      701      700      900      950      970     1000      129      960   
                                          VAR    BASINP    GEOM     GEOM    SYMINP    ZMAT    AOBASIS   BASIS     P2S    ABASIS    
                                         1100     1400     1410     1200     1210     1080     1600     1650     1300     1700   
                                           S        T        V       H0       H01     AOSYM     SMH    MOLCAS    ERIS     OPER   

              2       8        2.71       700     1000      520     2100      701     1001     2101     2102   
                                         GEOM     BASIS   MCVARS     RHF     GEOM     BASIS     RHF      RHF  

 PROGRAMS   *        TOTAL    HF-SCF       INT      OPTG    HF-SCF       INT      OPTG    HF-SCF       INT    HF-SCF       INT
 CPU TIMES  *      1043.59     84.11     20.71    309.72     98.73     18.74    387.59     13.36     11.70     81.31     17.45
 REAL TIME  *       224.46 SEC
 DISK USED  *         2.01 GB
 **********************************************************************************************************************************


 PROGRAM * OPT (Geometry optimization)     Authors: F. Eckert and H.-J. Werner


 BFGS update of hessian

 Geometry optimization using default procedure for command HF-SCF

 Inactive variables:    AHH1 AHH2 AHH3

 Active variables:      RCO ROH ACOH RCH1 AOCH1 RCH2
                        AOCH2 RCH3 AOCH3

 Geometry written to block  1 of record 700

 XYZ inputs for each point on the optimization path will be saved in files ch3oh_mep_xx.xyz

 Making model hessian for Z-matrix coordinates

 Entering Rational Function Geometry Optimization

 ITER.   ENERGY(OLD)    ENERGY(NEW)      DE          GRADMAX     GRADNORM    GRADRMS     STEPMAX     STEPLEN     STEPRMS   CPU-time
   1  -115.09818985  -115.09819470    -0.00000484  0.00116105  0.00165808  0.00055269  0.00529031  0.00732617  0.00081402    158.96
   2  -115.09819470  -115.09819495    -0.00000025  0.00025234  0.00038214  0.00012738  0.00091828  0.00127830  0.00014203    302.65

 END OF GEOMETRY OPTIMIZATION.

 Optimized variables
 RCO=                 1.40133862 ANGSTROM
 ROH=                 0.93667902 ANGSTROM
 ACOH=              110.75732928 DEGREE
 RCH1=                1.08414917 ANGSTROM
 AOCH1=             111.88365794 DEGREE
 RCH2=                1.08170550 ANGSTROM
 AOCH2=             109.29970590 DEGREE
 RCH3=                1.08356693 ANGSTROM
 AOCH3=             110.28421951 DEGREE

 **********************************************************************************************************************************

 Geometry written to block  1 of record 700

 Recomputing wavefunction for reoriented structure

 Current geometry (xyz format, in Angstrom)


 Dump information in style XYZ to ch3oh_mep.xyz                                                                   

    6
 HF-SCF001/CC-PVTZ-F12  ENERGY=-115.09819495
 C          0.0003927704        0.0116755721       -0.7188886695
 O         -0.0011457788       -0.0639492702        0.6804070294
 H          0.0095578077        0.7926678632        1.0591683041
 H          0.1880368902        1.0204888334       -1.0688385286
 H          0.7744973094       -0.6341687145       -1.1109780954
 H         -0.9585850444       -0.3030284437       -1.1131477564

 **********************************************************************************************************************************


 **********************************************************************************************************************************
 DATASETS  * FILE   NREC   LENGTH (MB)   RECORD NAMES
              1      20      544.50       500      610      701      700      900      950      970     1000      129      960   
                                          VAR    BASINP    GEOM     GEOM    SYMINP    ZMAT    AOBASIS   BASIS     P2S    ABASIS    
                                         1100     1400     1410     1200     1210     1080     1600     1650     1300     1700   
                                           S        T        V       H0       H01     AOSYM     SMH    MOLCAS    ERIS     OPER   

              2       8        2.71       700     1000      520     2100      701     1001     2101     2102   
                                         GEOM     BASIS   MCVARS     RHF     GEOM     BASIS     RHF      RHF  

 PROGRAMS   *        TOTAL      OPTG    HF-SCF       INT      OPTG    HF-SCF       INT      OPTG    HF-SCF       INT    HF-SCF
 CPU TIMES  *      1360.85    317.25     84.11     20.71    309.72     98.73     18.74    387.59     13.36     11.70     81.31
 REAL TIME  *       286.37 SEC
 DISK USED  *         2.02 GB
 **********************************************************************************************************************************

 DO I                   =        15.00000000   
 SETTING TAU            =        15.00000000                                  
 SETTING AHH1           =        15.00000000                                  
 SETTING AHH2           =       135.00000000                                  
 SETTING AHH3           =       255.00000000                                  


 Recomputing integrals since geometry changed


 PROGRAM * SEWARD (Integral evaluation for generally contracted gaussian basis sets)     Author: Roland Lindh, 1990

 Geometry written to block  1 of record 700

 Orientation using atomic masses  
 Molecule type: Asymmetric top
 Rotational constants:      24.4864668     25.3267238    132.4865588 GHz  (calculated with average atomic masses)

 Point group  C1  



 ATOMIC COORDINATES

 NR  ATOM    CHARGE       X              Y              Z

   1  C       6.00    0.000667536    0.022030930   -1.358503047
   2  O       8.00   -0.002185809   -0.120802868    1.285786780
   3  H       1.00    0.021775802    1.497938258    2.001495887
   4  H1      1.00    0.520815268    1.889336990   -2.021805772
   5  H2      1.00    1.345124969   -1.323934472   -2.106344710
   6  H3      1.00   -1.860974507   -0.408321723   -2.094665033

 Bond lengths in Bohr (Angstrom)

 1-2  2.648146206  1-4  2.048745004  1-5  2.044127150  1-6  2.047644738  2-3  1.770066811
     ( 1.401338623)     ( 1.084149167)     ( 1.081705504)     ( 1.083566931)     ( 0.936679018)

 Bond angles

  1-2-3  110.75732928   2-1-4  111.88365794   2-1-5  109.29970590   2-1-6  110.28421951

  4-1-5  108.34323458   4-1-6  107.81732594   5-1-6  109.15082134

 NUCLEAR CHARGE:                   18
 NUMBER OF PRIMITIVE AOS:         228
 NUMBER OF SYMMETRY AOS:          206
 NUMBER OF CONTRACTIONS:          178   (  178A   )
 NUMBER OF INNER CORE ORBITALS:     0   (    0A   )
 NUMBER OF OUTER CORE ORBITALS:     2   (    2A   )
 NUMBER OF VALENCE ORBITALS:       12   (   12A   )


 NUCLEAR REPULSION ENERGY   40.81952474

 Eigenvalues of metric

         1 0.852E-04 0.174E-03 0.299E-03 0.315E-03 0.450E-03 0.492E-03 0.558E-03 0.564E-03


 Contracted 2-electron integrals neglected if value below      1.0D-11
 AO integral compression algorithm  1   Integral accuracy      1.0D-11

     619.184 MB (compressed) written to integral file ( 51.9%)


 NUMBER OF SORTED TWO-ELECTRON INTEGRALS:  126906346.     BUFFER LENGTH:  32768
 NUMBER OF SEGMENTS:   8  SEGMENT LENGTH:   15999503      RECORD LENGTH: 524288

 Memory used in sort:      16.56 MW

 SORT1 READ   149034713. AND WROTE   124909611. INTEGRALS IN    360 RECORDS. CPU TIME:     0.99 SEC, REAL TIME:     1.46 SEC
 SORT2 READ   124909611. AND WROTE   126906346. INTEGRALS IN   2362 RECORDS. CPU TIME:     1.10 SEC, REAL TIME:     1.47 SEC

 FILE SIZES:   FILE 1:   650.7 MBYTE,  FILE 4:  1510.0 MBYTE,   TOTAL:   2160.6 MBYTE

 OPERATOR DM      FOR CENTER  0  COORDINATES:    0.000000    0.000000    0.000000


 **********************************************************************************************************************************
 DATASETS  * FILE   NREC   LENGTH (MB)   RECORD NAMES
              1      20      544.56       500      610      701      700      900      950      970     1000      129      960   
                                          VAR    BASINP    GEOM     GEOM    SYMINP    ZMAT    AOBASIS   BASIS     P2S    ABASIS    
                                         1100     1400     1410     1200     1210     1080     1600     1650     1300     1700   
                                           S        T        V       H0       H01     AOSYM     SMH    MOLCAS    ERIS     OPER   

              2       8        2.71       700     1000      520     2100      701     1001     2101     2102   
                                         GEOM     BASIS   MCVARS     RHF     GEOM     BASIS     RHF      RHF  

 PROGRAMS   *        TOTAL       INT      OPTG    HF-SCF       INT      OPTG    HF-SCF       INT      OPTG    HF-SCF       INT
 CPU TIMES  *      1379.47     18.61    317.25     84.11     20.71    309.72     98.73     18.74    387.59     13.36     11.70
 REAL TIME  *       293.72 SEC
 DISK USED  *         2.02 GB
 **********************************************************************************************************************************


 Program * Restricted Hartree-Fock

 Molecular orbitals read from record     2102.2  Type=RHF/CANONICAL  

 Initial occupancy:   9

 NELEC=   18   SYM=1   MS2= 0   THRE=1.0D-08   THRD=1.0D-07   THRG=1.0D-07  HFMA2=F  DIIS_START=2   DIIS_MAX=10   DIIS_INCORE=F

 Level shifts:    0.00 (CLOSED)    0.00 (OPEN)    0.30 (GAP_MIN)

 ITER           ETOT              DE          GRAD        DDIFF     DIIS  NEXP   TIME(IT)  TIME(TOT)  DIAG
   1     -115.09642023    -115.09642023     0.00D+00     0.50D-01     0     0       7.30      7.31    start
   2     -115.09810045      -0.00168023     0.95D-03     0.11D-02     1     0       8.25     15.56    diag
   3     -115.09830327      -0.00020282     0.25D-03     0.28D-03     2     0       7.26     22.82    diag
   4     -115.09831348      -0.00001021     0.47D-04     0.65D-04     3     0       7.24     30.06    diag
   5     -115.09831367      -0.00000019     0.74D-05     0.14D-04     4     0       8.25     38.31    diag
   6     -115.09831369      -0.00000002     0.33D-05     0.47D-05     5     0       7.26     45.57    diag
   7     -115.09831369      -0.00000000     0.67D-06     0.16D-05     6     0       7.33     52.90    diag
   8     -115.09831369      -0.00000000     0.21D-06     0.47D-06     7     0       7.25     60.15    fixocc
   9     -115.09831369      -0.00000000     0.66D-07     0.11D-06     8     0       8.23     68.38    diag
  10     -115.09831369      -0.00000000     0.22D-07     0.38D-07     9     0       7.20     75.58    diag/orth
  11     -115.09831369      -0.00000000     0.35D-08     0.64D-08     0     0       7.18     82.76    diag

 Final occupancy:   9

 !RHF STATE 1.1 Energy               -115.098313693490
  RHF One-electron energy            -237.846612681382
  RHF Two-electron energy              81.928774248906
  RHF Kinetic energy                  115.091596334598
  RHF Nuclear energy                   40.819524738985
  RHF Virial quotient                  -1.000058365329

 !RHF STATE 1.1 Dipole moment           0.01736637     0.60368310    -0.35691181
 Dipole moment /Debye                   0.04414090     1.53440938    -0.90717932

 Orbital energies:

           1.1          2.1          3.1          4.1          5.1          6.1          7.1          8.1          9.1         10.1
    -20.551802   -11.265823    -1.367087    -0.930945    -0.701207    -0.624514    -0.602062    -0.501795    -0.449298     0.054752

          11.1
      0.065549


 HOMO      9.1    -0.449298 =     -12.2260eV
 LUMO     10.1     0.054752 =       1.4899eV
 LUMO-HOMO         0.504050 =      13.7159eV

 Orbitals saved in record  2102.2


 **********************************************************************************************************************************
 DATASETS  * FILE   NREC   LENGTH (MB)   RECORD NAMES
              1      20      544.56       500      610      701      700      900      950      970     1000      129      960   
                                          VAR    BASINP    GEOM     GEOM    SYMINP    ZMAT    AOBASIS   BASIS     P2S    ABASIS    
                                         1100     1400     1410     1200     1210     1080     1600     1650     1300     1700   
                                           S        T        V       H0       H01     AOSYM     SMH    MOLCAS    ERIS     OPER   

              2       8        2.71       700     1000      520     2100      701     1001     2101     2102   
                                         GEOM     BASIS   MCVARS     RHF     GEOM     BASIS     RHF      RHF  

 PROGRAMS   *        TOTAL    HF-SCF       INT      OPTG    HF-SCF       INT      OPTG    HF-SCF       INT      OPTG    HF-SCF
 CPU TIMES  *      1462.27     82.80     18.61    317.25     84.11     20.71    309.72     98.73     18.74    387.59     13.36
 REAL TIME  *       307.34 SEC
 DISK USED  *         2.02 GB
 **********************************************************************************************************************************


 PROGRAM * OPT (Geometry optimization)     Authors: F. Eckert and H.-J. Werner


 BFGS update of hessian

 Geometry optimization using default procedure for command HF-SCF

 Inactive variables:    AHH1 AHH2 AHH3

 Active variables:      RCO ROH ACOH RCH1 AOCH1 RCH2
                        AOCH2 RCH3 AOCH3

 Geometry written to block  1 of record 700

 XYZ inputs for each point on the optimization path will be saved in files ch3oh_mep_xx.xyz

 Making model hessian for Z-matrix coordinates

 Entering Rational Function Geometry Optimization

 ITER.   ENERGY(OLD)    ENERGY(NEW)      DE          GRADMAX     GRADNORM    GRADRMS     STEPMAX     STEPLEN     STEPRMS   CPU-time
   1  -115.09831369  -115.09831830    -0.00000461  0.00115538  0.00163317  0.00054439  0.00516979  0.00707815  0.00078646    158.84
   2  -115.09831830  -115.09831854    -0.00000024  0.00025350  0.00037036  0.00012345  0.00090299  0.00122585  0.00013621    301.51

 END OF GEOMETRY OPTIMIZATION.

 Optimized variables
 RCO=                 1.40110205 ANGSTROM
 ROH=                 0.93682022 ANGSTROM
 ACOH=              110.71046394 DEGREE
 RCH1=                1.08426663 ANGSTROM
 AOCH1=             111.86901348 DEGREE
 RCH2=                1.08122119 ANGSTROM
 AOCH2=             109.05523659 DEGREE
 RCH3=                1.08403320 ANGSTROM
 AOCH3=             110.50652320 DEGREE

 **********************************************************************************************************************************

 Geometry written to block  1 of record 700

 Recomputing wavefunction for reoriented structure

 Current geometry (xyz format, in Angstrom)


 Dump information in style XYZ to ch3oh_mep.xyz                                                                   

    6
 HF-SCF001/CC-PVTZ-F12  ENERGY=-115.09831854
 C          0.0005543493        0.0115800826       -0.7187633972
 O         -0.0015956148       -0.0638561269        0.6803047576
 H          0.0132148626        0.7931827385        1.0583221578
 H          0.2785595198        0.9991513249       -1.0695486361
 H          0.7109970764       -0.7035746583       -1.1097417698
 H         -0.9840495203       -0.2131404738       -1.1126972239

 **********************************************************************************************************************************


 **********************************************************************************************************************************
 DATASETS  * FILE   NREC   LENGTH (MB)   RECORD NAMES
              1      20      545.36       500      610      701      700      900      950      970     1000      129      960   
                                          VAR    BASINP    GEOM     GEOM    SYMINP    ZMAT    AOBASIS   BASIS     P2S    ABASIS    
                                         1100     1400     1410     1200     1210     1080     1600     1650     1300     1700   
                                           S        T        V       H0       H01     AOSYM     SMH    MOLCAS    ERIS     OPER   

              2       8        2.71       700     1000      520     2100      701     1001     2101     2102   
                                         GEOM     BASIS   MCVARS     RHF     GEOM     BASIS     RHF      RHF  

 PROGRAMS   *        TOTAL      OPTG    HF-SCF       INT      OPTG    HF-SCF       INT      OPTG    HF-SCF       INT      OPTG
 CPU TIMES  *      1779.26    316.98     82.80     18.61    317.25     84.11     20.71    309.72     98.73     18.74    387.59
 REAL TIME  *       369.15 SEC
 DISK USED  *         2.02 GB
 **********************************************************************************************************************************

 DO I                   =        20.00000000   
 SETTING TAU            =        20.00000000                                  
 SETTING AHH1           =        20.00000000                                  
 SETTING AHH2           =       140.00000000                                  
 SETTING AHH3           =       260.00000000                                  


 Recomputing integrals since geometry changed


 PROGRAM * SEWARD (Integral evaluation for generally contracted gaussian basis sets)     Author: Roland Lindh, 1990

 Geometry written to block  1 of record 700

 Orientation using atomic masses  
 Molecule type: Asymmetric top
 Rotational constants:      24.4911376     25.3413608    132.4351583 GHz  (calculated with average atomic masses)

 Point group  C1  



 ATOMIC COORDINATES

 NR  ATOM    CHARGE       X              Y              Z

   1  C       6.00    0.000941202    0.021834869   -1.358266477
   2  O       8.00   -0.002918110   -0.120606914    1.285595506
   3  H       1.00    0.027460190    1.498949463    1.999875214
   4  H1      1.00    0.686059172    1.834506218   -2.023925244
   5  H2      1.00    1.215120295   -1.442815817   -2.103439261
   6  H3      1.00   -1.893535157   -0.236394922   -2.093613236

 Bond lengths in Bohr (Angstrom)

 1-2  2.647699141  1-4  2.048966970  1-5  2.043211928  1-6  2.048525849  2-3  1.770333641
     ( 1.401102047)     ( 1.084266627)     ( 1.081221189)     ( 1.084033195)     ( 0.936820219)

 Bond angles

  1-2-3  110.71046394   2-1-4  111.86901348   2-1-5  109.05523659   2-1-6  110.50652320

  4-1-5  108.48060499   4-1-6  107.70571392   5-1-6  109.16465854

 NUCLEAR CHARGE:                   18
 NUMBER OF PRIMITIVE AOS:         228
 NUMBER OF SYMMETRY AOS:          206
 NUMBER OF CONTRACTIONS:          178   (  178A   )
 NUMBER OF INNER CORE ORBITALS:     0   (    0A   )
 NUMBER OF OUTER CORE ORBITALS:     2   (    2A   )
 NUMBER OF VALENCE ORBITALS:       12   (   12A   )


 NUCLEAR REPULSION ENERGY   40.82308952

 Eigenvalues of metric

         1 0.854E-04 0.173E-03 0.301E-03 0.312E-03 0.451E-03 0.492E-03 0.559E-03 0.563E-03


 Contracted 2-electron integrals neglected if value below      1.0D-11
 AO integral compression algorithm  1   Integral accuracy      1.0D-11

     619.971 MB (compressed) written to integral file ( 52.0%)


 NUMBER OF SORTED TWO-ELECTRON INTEGRALS:  126906346.     BUFFER LENGTH:  32768
 NUMBER OF SEGMENTS:   8  SEGMENT LENGTH:   15999503      RECORD LENGTH: 524288

 Memory used in sort:      16.56 MW

 SORT1 READ   149034713. AND WROTE   124903149. INTEGRALS IN    360 RECORDS. CPU TIME:     0.99 SEC, REAL TIME:     1.45 SEC
 SORT2 READ   124903149. AND WROTE   126906346. INTEGRALS IN   2365 RECORDS. CPU TIME:     1.10 SEC, REAL TIME:     1.47 SEC

 FILE SIZES:   FILE 1:   651.4 MBYTE,  FILE 4:  1510.0 MBYTE,   TOTAL:   2161.4 MBYTE

 OPERATOR DM      FOR CENTER  0  COORDINATES:    0.000000    0.000000    0.000000


 **********************************************************************************************************************************
 DATASETS  * FILE   NREC   LENGTH (MB)   RECORD NAMES
              1      20      544.98       500      610      701      700      900      950      970     1000      129      960   
                                          VAR    BASINP    GEOM     GEOM    SYMINP    ZMAT    AOBASIS   BASIS     P2S    ABASIS    
                                         1100     1400     1410     1200     1210     1080     1600     1650     1300     1700   
                                           S        T        V       H0       H01     AOSYM     SMH    MOLCAS    ERIS     OPER   

              2       8        2.71       700     1000      520     2100      701     1001     2101     2102   
                                         GEOM     BASIS   MCVARS     RHF     GEOM     BASIS     RHF      RHF  

 PROGRAMS   *        TOTAL       INT      OPTG    HF-SCF       INT      OPTG    HF-SCF       INT      OPTG    HF-SCF       INT
 CPU TIMES  *      1797.73     18.46    316.98     82.80     18.61    317.25     84.11     20.71    309.72     98.73     18.74
 REAL TIME  *       376.47 SEC
 DISK USED  *         2.02 GB
 **********************************************************************************************************************************


 Program * Restricted Hartree-Fock

 Molecular orbitals read from record     2102.2  Type=RHF/CANONICAL  

 Initial occupancy:   9

 NELEC=   18   SYM=1   MS2= 0   THRE=1.0D-08   THRD=1.0D-07   THRG=1.0D-07  HFMA2=F  DIIS_START=2   DIIS_MAX=10   DIIS_INCORE=F

 Level shifts:    0.00 (CLOSED)    0.00 (OPEN)    0.30 (GAP_MIN)

 ITER           ETOT              DE          GRAD        DDIFF     DIIS  NEXP   TIME(IT)  TIME(TOT)  DIAG
   1     -115.09661840    -115.09661840     0.00D+00     0.50D-01     0     0       7.40      7.40    start
   2     -115.09826593      -0.00164752     0.94D-03     0.11D-02     1     0       7.65     15.05    diag
   3     -115.09846487      -0.00019895     0.25D-03     0.28D-03     2     0       7.21     22.26    diag
   4     -115.09847489      -0.00001002     0.47D-04     0.64D-04     3     0       7.92     30.18    diag
   5     -115.09847509      -0.00000020     0.80D-05     0.14D-04     4     0       8.14     38.32    diag
   6     -115.09847511      -0.00000002     0.36D-05     0.52D-05     5     0       7.97     46.29    diag
   7     -115.09847512      -0.00000000     0.64D-06     0.16D-05     6     0       7.60     53.89    diag
   8     -115.09847512      -0.00000000     0.20D-06     0.45D-06     7     0       7.80     61.69    fixocc
   9     -115.09847512      -0.00000000     0.62D-07     0.10D-06     8     0       7.26     68.95    diag
  10     -115.09847512      -0.00000000     0.20D-07     0.36D-07     9     0       7.93     76.88    diag/orth
  11     -115.09847512      -0.00000000     0.35D-08     0.60D-08     0     0       7.21     84.09    diag

 Final occupancy:   9

 !RHF STATE 1.1 Energy               -115.098475115977
  RHF One-electron energy            -237.853160763795
  RHF Two-electron energy              81.931596123077
  RHF Kinetic energy                  115.091633882697
  RHF Nuclear energy                   40.823089524741
  RHF Virial quotient                  -1.000059441621

 !RHF STATE 1.1 Dipole moment           0.02166689     0.60097732    -0.35706221
 Dipole moment /Debye                   0.05507175     1.52753199    -0.90756162

 Orbital energies:

           1.1          2.1          3.1          4.1          5.1          6.1          7.1          8.1          9.1         10.1
    -20.551930   -11.265822    -1.367217    -0.930919    -0.701224    -0.624394    -0.602120    -0.502089    -0.449270     0.054750

          11.1
      0.065549


 HOMO      9.1    -0.449270 =     -12.2252eV
 LUMO     10.1     0.054750 =       1.4898eV
 LUMO-HOMO         0.504020 =      13.7151eV

 Orbitals saved in record  2102.2


 **********************************************************************************************************************************
 DATASETS  * FILE   NREC   LENGTH (MB)   RECORD NAMES
              1      20      544.98       500      610      701      700      900      950      970     1000      129      960   
                                          VAR    BASINP    GEOM     GEOM    SYMINP    ZMAT    AOBASIS   BASIS     P2S    ABASIS    
                                         1100     1400     1410     1200     1210     1080     1600     1650     1300     1700   
                                           S        T        V       H0       H01     AOSYM     SMH    MOLCAS    ERIS     OPER   

              2       8        2.71       700     1000      520     2100      701     1001     2101     2102   
                                         GEOM     BASIS   MCVARS     RHF     GEOM     BASIS     RHF      RHF  

 PROGRAMS   *        TOTAL    HF-SCF       INT      OPTG    HF-SCF       INT      OPTG    HF-SCF       INT      OPTG    HF-SCF
 CPU TIMES  *      1881.87     84.13     18.46    316.98     82.80     18.61    317.25     84.11     20.71    309.72     98.73
 REAL TIME  *       390.27 SEC
 DISK USED  *         2.02 GB
 **********************************************************************************************************************************


 PROGRAM * OPT (Geometry optimization)     Authors: F. Eckert and H.-J. Werner


 BFGS update of hessian

 Geometry optimization using default procedure for command HF-SCF

 Inactive variables:    AHH1 AHH2 AHH3

 Active variables:      RCO ROH ACOH RCH1 AOCH1 RCH2
                        AOCH2 RCH3 AOCH3

 Geometry written to block  1 of record 700

 XYZ inputs for each point on the optimization path will be saved in files ch3oh_mep_xx.xyz

 Making model hessian for Z-matrix coordinates

 Entering Rational Function Geometry Optimization

 ITER.   ENERGY(OLD)    ENERGY(NEW)      DE          GRADMAX     GRADNORM    GRADRMS     STEPMAX     STEPLEN     STEPRMS   CPU-time
   1  -115.09847512  -115.09847937    -0.00000425  0.00112324  0.00158955  0.00052985  0.00495930  0.00673705  0.00074856    158.52
   2  -115.09847937  -115.09847959    -0.00000022  0.00025375  0.00035704  0.00011901  0.00088699  0.00116967  0.00012996    301.91

 END OF GEOMETRY OPTIMIZATION.

 Optimized variables
 RCO=                 1.40078620 ANGSTROM
 ROH=                 0.93700599 ANGSTROM
 ACOH=              110.64952467 DEGREE
 RCH1=                1.08442505 ANGSTROM
 AOCH1=             111.85015531 DEGREE
 RCH2=                1.08076251 ANGSTROM
 AOCH2=             108.82191076 DEGREE
 RCH3=                1.08446746 ANGSTROM
 AOCH3=             110.71195790 DEGREE

 **********************************************************************************************************************************

 Geometry written to block  1 of record 700

 Recomputing wavefunction for reoriented structure

 Current geometry (xyz format, in Angstrom)


 Dump information in style XYZ to ch3oh_mep.xyz                                                                   

    6
 HF-SCF001/CC-PVTZ-F12  ENERGY=-115.09847959
 C          0.0006739354        0.0114563580       -0.7185954736
 O         -0.0019201889       -0.0637377457        0.6801686567
 H          0.0157814121        0.7938755763        1.0572180813
 H          0.3653508789        0.9701556793       -1.0705671174
 H          0.6423598032       -0.7659440281       -1.1083845050
 H         -1.0010431062       -0.1228730557       -1.1117725930

 **********************************************************************************************************************************


 **********************************************************************************************************************************
 DATASETS  * FILE   NREC   LENGTH (MB)   RECORD NAMES
              1      20      545.47       500      610      701      700      900      950      970     1000      129      960   
                                          VAR    BASINP    GEOM     GEOM    SYMINP    ZMAT    AOBASIS   BASIS     P2S    ABASIS    
                                         1100     1400     1410     1200     1210     1080     1600     1650     1300     1700   
                                           S        T        V       H0       H01     AOSYM     SMH    MOLCAS    ERIS     OPER   

              2       8        2.71       700     1000      520     2100      701     1001     2101     2102   
                                         GEOM     BASIS   MCVARS     RHF     GEOM     BASIS     RHF      RHF  

 PROGRAMS   *        TOTAL      OPTG    HF-SCF       INT      OPTG    HF-SCF       INT      OPTG    HF-SCF       INT      OPTG
 CPU TIMES  *      2199.08    317.19     84.13     18.46    316.98     82.80     18.61    317.25     84.11     20.71    309.72
 REAL TIME  *       452.12 SEC
 DISK USED  *         2.02 GB
 **********************************************************************************************************************************

 DO I                   =        25.00000000   
 SETTING TAU            =        25.00000000                                  
 SETTING AHH1           =        25.00000000                                  
 SETTING AHH2           =       145.00000000                                  
 SETTING AHH3           =       265.00000000                                  


 Recomputing integrals since geometry changed


 PROGRAM * SEWARD (Integral evaluation for generally contracted gaussian basis sets)     Author: Roland Lindh, 1990

 Geometry written to block  1 of record 700

 Orientation using atomic masses  
 Molecule type: Asymmetric top
 Rotational constants:      24.4979032     25.3600391    132.3689753 GHz  (calculated with average atomic masses)

 Point group  C1  



 ATOMIC COORDINATES

 NR  ATOM    CHARGE       X              Y              Z

   1  C       6.00    0.001129044    0.021590032   -1.357949270
   2  O       8.00   -0.003391924   -0.120370305    1.285339833
   3  H       1.00    0.030869184    1.500305658    1.997772214
   4  H1      1.00    0.842842149    1.766270040   -2.026607118
   5  H2      1.00    1.077037437   -1.547669857   -2.100255297
   6  H3      1.00   -1.910361642   -0.065499100   -2.091733892

 Bond lengths in Bohr (Angstrom)

 1-2  2.647102275  1-4  2.049266357  1-5  2.042345149  1-6  2.049346489  2-3  1.770684698
     ( 1.400786199)     ( 1.084425055)     ( 1.080762510)     ( 1.084467459)     ( 0.937005990)

 Bond angles

  1-2-3  110.64952467   2-1-4  111.85015531   2-1-5  108.82191076   2-1-6  110.71195790

  4-1-5  108.61383920   4-1-6  107.60527882   5-1-6  109.18214570

 NUCLEAR CHARGE:                   18
 NUMBER OF PRIMITIVE AOS:         228
 NUMBER OF SYMMETRY AOS:          206
 NUMBER OF CONTRACTIONS:          178   (  178A   )
 NUMBER OF INNER CORE ORBITALS:     0   (    0A   )
 NUMBER OF OUTER CORE ORBITALS:     2   (    2A   )
 NUMBER OF VALENCE ORBITALS:       12   (   12A   )


 NUCLEAR REPULSION ENERGY   40.82785124

 Eigenvalues of metric

         1 0.855E-04 0.172E-03 0.303E-03 0.310E-03 0.451E-03 0.490E-03 0.559E-03 0.563E-03


 Contracted 2-electron integrals neglected if value below      1.0D-11
 AO integral compression algorithm  1   Integral accuracy      1.0D-11

     619.971 MB (compressed) written to integral file ( 52.0%)


 NUMBER OF SORTED TWO-ELECTRON INTEGRALS:  126906346.     BUFFER LENGTH:  32768
 NUMBER OF SEGMENTS:   8  SEGMENT LENGTH:   15999503      RECORD LENGTH: 524288

 Memory used in sort:      16.56 MW

 SORT1 READ   149034713. AND WROTE   124899737. INTEGRALS IN    360 RECORDS. CPU TIME:     0.99 SEC, REAL TIME:     1.44 SEC
 SORT2 READ   124899737. AND WROTE   126906346. INTEGRALS IN   2365 RECORDS. CPU TIME:     1.10 SEC, REAL TIME:     1.47 SEC

 FILE SIZES:   FILE 1:   651.4 MBYTE,  FILE 4:  1510.0 MBYTE,   TOTAL:   2161.4 MBYTE

 OPERATOR DM      FOR CENTER  0  COORDINATES:    0.000000    0.000000    0.000000


 **********************************************************************************************************************************
 DATASETS  * FILE   NREC   LENGTH (MB)   RECORD NAMES
              1      20      545.09       500      610      701      700      900      950      970     1000      129      960   
                                          VAR    BASINP    GEOM     GEOM    SYMINP    ZMAT    AOBASIS   BASIS     P2S    ABASIS    
                                         1100     1400     1410     1200     1210     1080     1600     1650     1300     1700   
                                           S        T        V       H0       H01     AOSYM     SMH    MOLCAS    ERIS     OPER   

              2       8        2.71       700     1000      520     2100      701     1001     2101     2102   
                                         GEOM     BASIS   MCVARS     RHF     GEOM     BASIS     RHF      RHF  

 PROGRAMS   *        TOTAL       INT      OPTG    HF-SCF       INT      OPTG    HF-SCF       INT      OPTG    HF-SCF       INT
 CPU TIMES  *      2218.49     19.39    317.19     84.13     18.46    316.98     82.80     18.61    317.25     84.11     20.71
 REAL TIME  *       459.59 SEC
[...]
 REAL TIME  *       940.50 SEC
 DISK USED  *         2.02 GB
 **********************************************************************************************************************************


 Program * Restricted Hartree-Fock

 Molecular orbitals read from record     2102.2  Type=RHF/CANONICAL  

 Initial occupancy:   9

 NELEC=   18   SYM=1   MS2= 0   THRE=1.0D-08   THRD=1.0D-07   THRG=1.0D-07  HFMA2=F  DIIS_START=2   DIIS_MAX=10   DIIS_INCORE=F

 Level shifts:    0.00 (CLOSED)    0.00 (OPEN)    0.30 (GAP_MIN)

 ITER           ETOT              DE          GRAD        DDIFF     DIIS  NEXP   TIME(IT)  TIME(TOT)  DIAG
   1     -115.09800798    -115.09800798     0.00D+00     0.50D-01     0     0       7.41      7.42    start
   2     -115.09943660      -0.00142862     0.88D-03     0.99D-03     1     0       7.40     14.82    diag
   3     -115.09960963      -0.00017303     0.23D-03     0.26D-03     2     0       7.33     22.15    diag
   4     -115.09961834      -0.00000871     0.43D-04     0.61D-04     3     0       7.68     29.83    diag
   5     -115.09961849      -0.00000015     0.66D-05     0.13D-04     4     0       8.32     38.15    diag
   6     -115.09961850      -0.00000001     0.27D-05     0.40D-05     5     0       7.37     45.52    diag
   7     -115.09961850      -0.00000000     0.56D-06     0.13D-05     6     0       8.30     53.82    diag
   8     -115.09961850      -0.00000000     0.14D-06     0.36D-06     7     0       7.36     61.18    fixocc
   9     -115.09961850      -0.00000000     0.39D-07     0.76D-07     8     0       7.33     68.51    diag
  10     -115.09961850      -0.00000000     0.14D-07     0.17D-07     0     0       7.41     75.92    diag/orth

 Final occupancy:   9

 !RHF STATE 1.1 Energy               -115.099618504753
  RHF One-electron energy            -237.923981821214
  RHF Two-electron energy              81.963329521309
  RHF Kinetic energy                  115.092910147988
  RHF Nuclear energy                   40.861033795153
  RHF Virial quotient                  -1.000058286447

 !RHF STATE 1.1 Dipole moment           0.00678827     0.58312233    -0.35747306
 Dipole moment /Debye                   0.01725406     1.48214913    -0.90860590

 Orbital energies:

           1.1          2.1          3.1          4.1          5.1          6.1          7.1          8.1          9.1         10.1
    -20.552955   -11.265742    -1.368465    -0.930550    -0.701548    -0.623553    -0.602490    -0.504383    -0.448977     0.054588

          11.1
      0.065411


 HOMO      9.1    -0.448977 =     -12.2173eV
 LUMO     10.1     0.054588 =       1.4854eV
 LUMO-HOMO         0.503566 =      13.7027eV

 Orbitals saved in record  2102.2


 **********************************************************************************************************************************
 DATASETS  * FILE   NREC   LENGTH (MB)   RECORD NAMES
              1      20      541.53       500      610      701      700      900      950      970     1000      129      960   
                                          VAR    BASINP    GEOM     GEOM    SYMINP    ZMAT    AOBASIS   BASIS     P2S    ABASIS    
                                         1100     1400     1410     1200     1210     1080     1600     1650     1300     1700   
                                           S        T        V       H0       H01     AOSYM     SMH    MOLCAS    ERIS     OPER   

              2       8        2.71       700     1000      520     2100      701     1001     2101     2102   
                                         GEOM     BASIS   MCVARS     RHF     GEOM     BASIS     RHF      RHF  

 PROGRAMS   *        TOTAL    HF-SCF       INT      OPTG    HF-SCF       INT      OPTG    HF-SCF       INT      OPTG    HF-SCF
 CPU TIMES  *      4706.64     75.96     18.63    306.19     73.85     18.60    300.62     74.14     23.30    302.43     77.15
 REAL TIME  *       953.04 SEC
 DISK USED  *         2.02 GB
 **********************************************************************************************************************************


 PROGRAM * OPT (Geometry optimization)     Authors: F. Eckert and H.-J. Werner


 BFGS update of hessian

 Geometry optimization using default procedure for command HF-SCF

 Inactive variables:    AHH1 AHH2 AHH3

 Active variables:      RCO ROH ACOH RCH1 AOCH1 RCH2
                        AOCH2 RCH3 AOCH3

 Geometry written to block  1 of record 700

 XYZ inputs for each point on the optimization path will be saved in files ch3oh_mep_xx.xyz

 Making model hessian for Z-matrix coordinates

 Entering Rational Function Geometry Optimization

 ITER.   ENERGY(OLD)    ENERGY(NEW)      DE          GRADMAX     GRADNORM    GRADRMS     STEPMAX     STEPLEN     STEPRMS   CPU-time
   1  -115.09961850  -115.09961890    -0.00000040  0.00026409  0.00050432  0.00016811  0.00136575  0.00199575  0.00022175    150.05

 END OF GEOMETRY OPTIMIZATION.

 Optimized variables
 RCO=                 1.39843190 ANGSTROM
 ROH=                 0.93835184 ANGSTROM
 ACOH=              110.21880144 DEGREE
 RCH1=                1.08580711 ANGSTROM
 AOCH1=             111.65444356 DEGREE
 RCH2=                1.07888096 ANGSTROM
 AOCH2=             107.82959447 DEGREE
 RCH3=                1.08597569 ANGSTROM
 AOCH3=             111.58323704 DEGREE

 **********************************************************************************************************************************

 Geometry written to block  1 of record 700

 Recomputing wavefunction for reoriented structure

 Current geometry (xyz format, in Angstrom)


 Dump information in style XYZ to ch3oh_mep.xyz                                                                   

    6
 HF-SCF001/CC-PVTZ-F12  ENERGY=-115.09961890
 C          0.0001947646        0.0106015343       -0.7173351765
 O         -0.0005217687       -0.0629584140        0.6791605120
 H          0.0039234552        0.7992819006        1.0493308125
 H          0.8300899771        0.6053630868       -1.0868073967
 H          0.0845189660       -0.9942174511       -1.1010178161
 H         -0.9125710628        0.4626024259       -1.0940272696

 **********************************************************************************************************************************


 **********************************************************************************************************************************
 DATASETS  * FILE   NREC   LENGTH (MB)   RECORD NAMES
              1      20      541.45       500      610      701      700      900      950      970     1000      129      960   
                                          VAR    BASINP    GEOM     GEOM    SYMINP    ZMAT    AOBASIS   BASIS     P2S    ABASIS    
                                         1100     1400     1410     1200     1210     1080     1600     1650     1300     1700   
                                           S        T        V       H0       H01     AOSYM     SMH    MOLCAS    ERIS     OPER   

              2       8        2.71       700     1000      520     2100      701     1001     2101     2102   
                                         GEOM     BASIS   MCVARS     RHF     GEOM     BASIS     RHF      RHF  

 PROGRAMS   *        TOTAL      OPTG    HF-SCF       INT      OPTG    HF-SCF       INT      OPTG    HF-SCF       INT      OPTG
 CPU TIMES  *      4872.32    165.66     75.96     18.63    306.19     73.85     18.60    300.62     74.14     23.30    302.43
 REAL TIME  *       985.24 SEC
 DISK USED  *         2.02 GB
 **********************************************************************************************************************************

 DO I                   =        60.00000000   
 SETTING TAU            =        60.00000000                                  
 SETTING AHH1           =        60.00000000                                  
 SETTING AHH2           =       180.00000000                                  
 SETTING AHH3           =       300.00000000                                  


 Recomputing integrals since geometry changed


 PROGRAM * SEWARD (Integral evaluation for generally contracted gaussian basis sets)     Author: Roland Lindh, 1990

 Geometry written to block  1 of record 700

 Orientation using atomic masses  
 Molecule type: Asymmetric top
 Rotational constants:      24.5574803     25.4858792    131.9100279 GHz  (calculated with average atomic masses)

 Point group  C1  



 ATOMIC COORDINATES

 NR  ATOM    CHARGE       X              Y              Z

   1  C       6.00    0.000012254    0.020024661   -1.355567171
   2  O       8.00   -0.000017865   -0.118965294    1.283428520
   3  H       1.00    0.001170465    1.510460171    1.982934572
   4  H1      1.00    1.652275959    1.010876259   -2.061570977
   5  H2      1.00   -0.001374865   -1.885325426   -2.081033858
   6  H3      1.00   -1.651934002    1.013747042   -2.059200882

 Bond lengths in Bohr (Angstrom)

 1-2  2.642653301  1-4  2.051878070  1-5  2.038789541  1-6  2.052196628  2-3  1.773227982
     ( 1.398431903)     ( 1.085807114)     ( 1.078880963)     ( 1.085975688)     ( 0.938351838)

 Bond angles

  1-2-3  110.21880144   2-1-4  111.65444356   2-1-5  107.82959447   2-1-6  111.58323704

  4-1-5  109.23285719   4-1-6  107.24084065   5-1-6  109.26755325

 NUCLEAR CHARGE:                   18
 NUMBER OF PRIMITIVE AOS:         228
 NUMBER OF SYMMETRY AOS:          206
 NUMBER OF CONTRACTIONS:          178   (  178A   )
 NUMBER OF INNER CORE ORBITALS:     0   (    0A   )
 NUMBER OF OUTER CORE ORBITALS:     2   (    2A   )
 NUMBER OF VALENCE ORBITALS:       12   (   12A   )


 NUCLEAR REPULSION ENERGY   40.86348986

 Eigenvalues of metric

         1 0.853E-04 0.166E-03 0.303E-03 0.320E-03 0.453E-03 0.484E-03 0.557E-03 0.567E-03


 Contracted 2-electron integrals neglected if value below      1.0D-11
 AO integral compression algorithm  1   Integral accuracy      1.0D-11

     591.397 MB (compressed) written to integral file ( 49.6%)


 NUMBER OF SORTED TWO-ELECTRON INTEGRALS:  126906346.     BUFFER LENGTH:  32768
 NUMBER OF SEGMENTS:   8  SEGMENT LENGTH:   15999503      RECORD LENGTH: 524288

 Memory used in sort:      16.56 MW

 SORT1 READ   149034713. AND WROTE   124500857. INTEGRALS IN    359 RECORDS. CPU TIME:     1.03 SEC, REAL TIME:     1.50 SEC
 SORT2 READ   124500857. AND WROTE   126906346. INTEGRALS IN   2256 RECORDS. CPU TIME:     1.17 SEC, REAL TIME:     1.54 SEC

 FILE SIZES:   FILE 1:   622.9 MBYTE,  FILE 4:  1505.8 MBYTE,   TOTAL:   2128.7 MBYTE

 OPERATOR DM      FOR CENTER  0  COORDINATES:    0.000000    0.000000    0.000000


 **********************************************************************************************************************************
 DATASETS  * FILE   NREC   LENGTH (MB)   RECORD NAMES
              1      20      521.43       500      610      701      700      900      950      970     1000      129      960   
                                          VAR    BASINP    GEOM     GEOM    SYMINP    ZMAT    AOBASIS   BASIS     P2S    ABASIS    
                                         1100     1400     1410     1200     1210     1080     1600     1650     1300     1700   
                                           S        T        V       H0       H01     AOSYM     SMH    MOLCAS    ERIS     OPER   

              2       8        2.71       700     1000      520     2100      701     1001     2101     2102   
                                         GEOM     BASIS   MCVARS     RHF     GEOM     BASIS     RHF      RHF  

 PROGRAMS   *        TOTAL       INT      OPTG    HF-SCF       INT      OPTG    HF-SCF       INT      OPTG    HF-SCF       INT
 CPU TIMES  *      4891.86     19.54    165.66     75.96     18.63    306.19     73.85     18.60    300.62     74.14     23.30
 REAL TIME  *       992.87 SEC
 DISK USED  *         2.02 GB
 **********************************************************************************************************************************


 Program * Restricted Hartree-Fock

 Molecular orbitals read from record     2102.2  Type=RHF/CANONICAL  

 Initial occupancy:   9

 NELEC=   18   SYM=1   MS2= 0   THRE=1.0D-08   THRD=1.0D-07   THRG=1.0D-07  HFMA2=F  DIIS_START=2   DIIS_MAX=10   DIIS_INCORE=F

 Level shifts:    0.00 (CLOSED)    0.00 (OPEN)    0.30 (GAP_MIN)

 ITER           ETOT              DE          GRAD        DDIFF     DIIS  NEXP   TIME(IT)  TIME(TOT)  DIAG
   1     -115.09804560    -115.09804560     0.00D+00     0.50D-01     0     0       7.72      7.72    start
   2     -115.09946455      -0.00141895     0.88D-03     0.98D-03     1     0       7.94     15.66    diag
   3     -115.09963645      -0.00017189     0.23D-03     0.26D-03     2     0       7.61     23.27    diag
   4     -115.09964510      -0.00000866     0.43D-04     0.61D-04     3     0       7.67     30.94    diag
   5     -115.09964525      -0.00000015     0.60D-05     0.13D-04     4     0       7.62     38.56    diag
   6     -115.09964526      -0.00000001     0.19D-05     0.34D-05     5     0       7.68     46.24    diag
   7     -115.09964526      -0.00000000     0.54D-06     0.11D-05     6     0       7.93     54.17    diag
   8     -115.09964526      -0.00000000     0.15D-06     0.33D-06     7     0       7.68     61.85    fixocc
   9     -115.09964526      -0.00000000     0.40D-07     0.75D-07     8     0       8.61     70.46    diag
  10     -115.09964526      -0.00000000     0.14D-07     0.18D-07     0     0       7.59     78.05    diag/orth

 Final occupancy:   9

 !RHF STATE 1.1 Energy               -115.099645259182
  RHF One-electron energy            -237.928648208644
  RHF Two-electron energy              81.965513092792
  RHF Kinetic energy                  115.093102616502
  RHF Nuclear energy                   40.863489856670
  RHF Virial quotient                  -1.000056846523

 !RHF STATE 1.1 Dipole moment           0.00051487     0.58277553    -0.35744815
 Dipole moment /Debye                   0.00130866     1.48126765    -0.90854257

 Orbital energies:

           1.1          2.1          3.1          4.1          5.1          6.1          7.1          8.1          9.1         10.1
    -20.552995   -11.265730    -1.368535    -0.930519    -0.701595    -0.623522    -0.602475    -0.504482    -0.448960     0.054578

          11.1
      0.065408


 HOMO      9.1    -0.448960 =     -12.2168eV
 LUMO     10.1     0.054578 =       1.4852eV
 LUMO-HOMO         0.503538 =      13.7020eV

 Orbitals saved in record  2102.2


 **********************************************************************************************************************************
 DATASETS  * FILE   NREC   LENGTH (MB)   RECORD NAMES
              1      20      521.43       500      610      701      700      900      950      970     1000      129      960   
                                          VAR    BASINP    GEOM     GEOM    SYMINP    ZMAT    AOBASIS   BASIS     P2S    ABASIS    
                                         1100     1400     1410     1200     1210     1080     1600     1650     1300     1700   
                                           S        T        V       H0       H01     AOSYM     SMH    MOLCAS    ERIS     OPER   

              2       8        2.71       700     1000      520     2100      701     1001     2101     2102   
                                         GEOM     BASIS   MCVARS     RHF     GEOM     BASIS     RHF      RHF  

 PROGRAMS   *        TOTAL    HF-SCF       INT      OPTG    HF-SCF       INT      OPTG    HF-SCF       INT      OPTG    HF-SCF
 CPU TIMES  *      4969.95     78.09     19.54    165.66     75.96     18.63    306.19     73.85     18.60    300.62     74.14
 REAL TIME  *      1005.78 SEC
 DISK USED  *         2.02 GB
 **********************************************************************************************************************************


 PROGRAM * OPT (Geometry optimization)     Authors: F. Eckert and H.-J. Werner


 BFGS update of hessian

 Geometry optimization using default procedure for command HF-SCF

 Inactive variables:    AHH1 AHH2 AHH3

 Active variables:      RCO ROH ACOH RCH1 AOCH1 RCH2
                        AOCH2 RCH3 AOCH3

 Geometry written to block  1 of record 700

 XYZ inputs for each point on the optimization path will be saved in files ch3oh_mep_xx.xyz

 Making model hessian for Z-matrix coordinates

 Entering Rational Function Geometry Optimization

 ITER.   ENERGY(OLD)    ENERGY(NEW)      DE          GRADMAX     GRADNORM    GRADRMS     STEPMAX     STEPLEN     STEPRMS   CPU-time
   1  -115.09964526  -115.09964538    -0.00000012  0.00016207  0.00027447  0.00009149  0.00080018  0.00113219  0.00012580    156.87

 END OF GEOMETRY OPTIMIZATION.

 Optimized variables
 RCO=                 1.39836098 ANGSTROM
 ROH=                 0.93839361 ANGSTROM
 ACOH=              110.21056098 DEGREE
 RCH1=                1.08591452 ANGSTROM
 AOCH1=             111.61283409 DEGREE
 RCH2=                1.07883196 ANGSTROM
 AOCH2=             107.82198240 DEGREE
 RCH3=                1.08595287 ANGSTROM
 AOCH3=             111.62908423 DEGREE

 **********************************************************************************************************************************

 Geometry written to block  1 of record 700

 Recomputing wavefunction for reoriented structure

 Current geometry (xyz format, in Angstrom)


 Dump information in style XYZ to ch3oh_mep.xyz                                                                   

    6
 HF-SCF001/CC-PVTZ-F12  ENERGY=-115.09964538
 C          0.0000053086        0.0105834426       -0.7172958627
 O         -0.0000051501       -0.0629485274        0.6791304660
 H         -0.0000746282        0.7994020083        1.0491765606
 H          0.8742815829        0.5357679085       -1.0901666343
 H          0.0000859824       -0.9976938779       -1.1010343632
 H         -0.8742744462        0.5356125764       -1.0904887782

 **********************************************************************************************************************************


 **********************************************************************************************************************************
 DATASETS  * FILE   NREC   LENGTH (MB)   RECORD NAMES
              1      20      508.94       500      610      701      700      900      950      970     1000      129      960   
                                          VAR    BASINP    GEOM     GEOM    SYMINP    ZMAT    AOBASIS   BASIS     P2S    ABASIS    
                                         1100     1400     1410     1200     1210     1080     1600     1650     1300     1700   
                                           S        T        V       H0       H01     AOSYM     SMH    MOLCAS    ERIS     OPER   

              2       8        2.71       700     1000      520     2100      701     1001     2101     2102   
                                         GEOM     BASIS   MCVARS     RHF     GEOM     BASIS     RHF      RHF  

 PROGRAMS   *        TOTAL      OPTG    HF-SCF       INT      OPTG    HF-SCF       INT      OPTG    HF-SCF       INT      OPTG
 CPU TIMES  *      5143.33    173.37     78.09     19.54    165.66     75.96     18.63    306.19     73.85     18.60    300.62
 REAL TIME  *      1039.27 SEC
 DISK USED  *         2.02 GB
 **********************************************************************************************************************************

 HF/cc-pVTZ-F12//HF/cc-pVTZ-F12 energy=   -115.099645382465

    OPTG(HF-SCF)          HF-SCF    OPTG(HF-SCF)          HF-SCF    OPTG(HF-SCF)          HF-SCF    OPTG(HF-SCF)          HF-SCF
   -115.09964538   -115.09964526   -115.09961890   -115.09961850   -115.09954132   -115.09954049   -115.09941785   -115.09941647
 **********************************************************************************************************************************
 Molpro calculation terminated
