
 Working directory              : /tmp/asmola/molpro.uXDnKkFPXY/
 Global scratch directory       : /tmp/asmola/molpro.uXDnKkFPXY/
 Wavefunction directory         : /home/asmola/wfu/
 Main file repository           : /tmp/asmola/molpro.uXDnKkFPXY/

 id        : uclcc

 Nodes                        nprocs
 vincent.theory.phys.ucl.ac.uk    1
 GA implementation: MPI file
 GA implementation (serial work in mppx): MPI file

 Using customized tuning parameters: mindgm=1; mindgv=20; mindgc=4; mindgr=1; noblas=0; minvec=7
 default implementation of scratch files=df  


 Variables initialized (1015), CPU time= 0.01 sec
 ***,Methanol Ground State Energy with CCSD(T)-F12 and aug-cc-pVTZ-F12
 memory,500,m;
 
 geometry={angstrom
 c
 o , 1, rco
 h , 2, roh, 1, acoh
 h1, 1, rch1, 2, aoch1  3  ahh1
 h2, 1, rch2, 2, aoch2, 3, ahh2
 h3, 1, rch3, 2, aoch3, 3, ahh3
 }
 
                                                ! Specify the initial values of the internal coordinates (in Angstroms and degrees)
 re1= 1.4296
 re2= 0.95887
 re3= 1.092294
 re4= 1.092294
 re5= 1.092294
 ae1= 107.9812
 ae2= 110.6646
 ae3= 110.6646
 ae4= 110.6646
 ahh1=60.00
 ahh2=180.00
 ahh3=300.00
 
 rco= 1.4296
 roh= 0.95887
 rch1= 1.092294
 rch2= 1.092294
 rch3= 1.092294
 acoh= 107.9812
 aoch1= 110.6646
 aoch2= 110.6646
 aoch3= 110.6646
 ahh1=60.00
 ahh2=180.00
 ahh3=300.00
 
 
 
                                                                                 ! Use the cc-pVTZ-F12 basis set
 basis=aug-cc-pVTZ-F12
 
 
 hf;
 
 
                                                                                 ! Use explicitly correlated F12 methods
                                                                            ! First, MP2-F12 (useful for initial electronic energy)
 {mp2-f12}
 
                                                                        ! If desired, perform CCSD(T)-F12 for more accurate results
 {ccsd(t)-f12}
 
                                                                                 ! Output the energy
 
 Commands initialized (818), CPU time= 0.00 sec, 672 directives.
 Default parameters read. Elapsed time= 0.05 sec

 Checking input...
 Passed
1


                                         ***  PROGRAM SYSTEM MOLPRO  ***
                                       Copyright, TTI GmbH Stuttgart, 2015
                                    Version 2022.1 linked Mar  3 2022 23:20:00


 **********************************************************************************************************************************
 LABEL *   Methanol Ground State Energy with CCSD(T)-F12 and aug-cc-pVTZ-F12             
  (14 PROC) 64 bit serial version                                                        DATE: 23-Jan-25          TIME: 11:35:31  
 **********************************************************************************************************************************

 SHA1:             31073afc4d8441e10870424e0d77336a33bc4286
 **********************************************************************************************************************************

 Memory per process:       500 MW
 Total memory per node:    500 MW

 GA preallocation disabled
 GA check disabled

 Variable memory set to 500.0 MW

 SETTING RE1            =         1.42960000                                  
 SETTING RE2            =         0.95887000                                  
 SETTING RE3            =         1.09229400                                  
 SETTING RE4            =         1.09229400                                  
 SETTING RE5            =         1.09229400                                  
 SETTING AE1            =       107.98120000                                  
 SETTING AE2            =       110.66460000                                  
 SETTING AE3            =       110.66460000                                  
 SETTING AE4            =       110.66460000                                  
 SETTING AHH1           =        60.00000000                                  
 SETTING AHH2           =       180.00000000                                  
 SETTING AHH3           =       300.00000000                                  
 SETTING RCO            =         1.42960000                                  
 SETTING ROH            =         0.95887000                                  
 SETTING RCH1           =         1.09229400                                  
 SETTING RCH2           =         1.09229400                                  
 SETTING RCH3           =         1.09229400                                  
 SETTING ACOH           =       107.98120000                                  
 SETTING AOCH1          =       110.66460000                                  
 SETTING AOCH2          =       110.66460000                                  
 SETTING AOCH3          =       110.66460000                                  
 SETTING AHH1           =        60.00000000                                  
 SETTING AHH2           =       180.00000000                                  
 SETTING AHH3           =       300.00000000                                  
 SETTING BASIS          =    AUG-CC-PVTZ-F12


 Recomputing integrals since basis changed


 Using spherical harmonics

 Library entry C      S cc-pVTZ-F12          selected for orbital group  1
 Library entry C      P cc-pVTZ-F12          selected for orbital group  1
 Library entry C      D cc-pVTZ-F12          selected for orbital group  1
 Library entry C      D vtz-f12-diff         selected for orbital group  1
 Library entry C      F cc-pVTZ-F12          selected for orbital group  1
 Library entry C      F vtz-f12-diff         selected for orbital group  1
 Library entry O      S cc-pVTZ-F12          selected for orbital group  2
 Library entry O      P cc-pVTZ-F12          selected for orbital group  2
 Library entry O      D cc-pVTZ-F12          selected for orbital group  2
 Library entry O      D vtz-f12-diff         selected for orbital group  2
 Library entry O      F cc-pVTZ-F12          selected for orbital group  2
 Library entry O      F vtz-f12-diff         selected for orbital group  2
 Library entry H      S cc-pVTZ-F12          selected for orbital group  3
 Library entry H      P cc-pVTZ-F12          selected for orbital group  3
 Library entry H      P vtz-f12-diff         selected for orbital group  3
 Library entry H      D cc-pVTZ-F12          selected for orbital group  3
 Library entry H      D vtz-f12-diff         selected for orbital group  3


 PROGRAM * SEWARD (Integral evaluation for generally contracted gaussian basis sets)     Author: Roland Lindh, 1990

 Geometry written to block  1 of record 700

 Orientation using atomic masses  
 Molecule type: Asymmetric top
 Symmetry elements: X
 Rotational constants:      23.6333757     24.5065391    128.9114827 GHz  (calculated with average atomic masses)

 Point group  Cs  



 ATOMIC COORDINATES

 NR  ATOM    CHARGE       X              Y              Z

   1  C       6.00    0.000000000    0.021622205   -1.383678043
   2  O       8.00    0.000000000   -0.126383340    1.313817109
   3  H       1.00    0.000000000    1.563882378    1.966773405
   4  H1      1.00    1.672584827    1.025746373   -2.058106820
   5  H3      1.00   -1.672584827    1.025746373   -2.058106820
   6  H2      1.00    0.000000000   -1.866904676   -2.216820134

 Bond lengths in Bohr (Angstrom)

 1-2  2.701552468  1-4  2.064136508  1-5  2.064136508  1-6  2.064136508  2-3  1.812001689
     ( 1.429600000)     ( 1.092294000)     ( 1.092294000)     ( 1.092294000)     ( 0.958870000)

 Bond angles

  1-2-3  107.98120000   2-1-4  110.66460000   2-1-5  110.66460000   2-1-6  110.66460000

  4-1-5  108.25192757   4-1-6  108.25192757   5-1-6  108.25192757

 NUCLEAR CHARGE:                   18
 NUMBER OF PRIMITIVE AOS:         296
 NUMBER OF SYMMETRY AOS:          262
 NUMBER OF CONTRACTIONS:          234   (  146A'  +   88A"  )
 NUMBER OF INNER CORE ORBITALS:     0   (    0A'  +    0A"  )
 NUMBER OF OUTER CORE ORBITALS:     2   (    2A'  +    0A"  )
 NUMBER OF VALENCE ORBITALS:       12   (    9A'  +    3A"  )


 NUCLEAR REPULSION ENERGY   40.16373301

 Eigenvalues of metric

         1 0.273E-04 0.411E-04 0.464E-04 0.746E-04 0.145E-03 0.244E-03 0.275E-03 0.356E-03
         2 0.332E-04 0.277E-03 0.483E-03 0.659E-03 0.953E-03 0.111E-02 0.135E-02 0.177E-02


 Contracted 2-electron integrals neglected if value below      1.0D-12
 AO integral compression algorithm  1   Integral accuracy      1.0D-12

     1183.056 MB (compressed) written to integral file ( 63.5%)


 NUMBER OF SORTED TWO-ELECTRON INTEGRALS:  191319820.     BUFFER LENGTH:  32768
 NUMBER OF SEGMENTS:  12  SEGMENT LENGTH:   15999921      RECORD LENGTH: 524288

 Memory used in sort:      16.56 MW

 SORT1 READ   232957557. AND WROTE   188971062. INTEGRALS IN    545 RECORDS. CPU TIME:     2.00 SEC, REAL TIME:     3.01 SEC
 SORT2 READ   188971062. AND WROTE   191319820. INTEGRALS IN   4513 RECORDS. CPU TIME:     2.14 SEC, REAL TIME:     2.81 SEC

 FILE SIZES:   FILE 1:  1214.5 MBYTE,  FILE 4:  2285.9 MBYTE,   TOTAL:   3500.5 MBYTE

 OPERATOR DM      FOR CENTER  0  COORDINATES:    0.000000    0.000000    0.000000


 **********************************************************************************************************************************
 DATASETS  * FILE   NREC   LENGTH (MB)   RECORD NAMES
              1      19      983.65       500      610      700      900      950      970     1000      129      960     1100   
                                          VAR    BASINP    GEOM    SYMINP    ZMAT    AOBASIS   BASIS     P2S    ABASIS      S 
                                         1400     1410     1200     1210     1080     1600     1650     1300     1700   
                                           T        V       H0       H01     AOSYM     SMH    MOLCAS    ERIS     OPER   

 PROGRAMS   *        TOTAL       INT
 CPU TIMES  *        61.54     61.43
 REAL TIME  *        18.88 SEC
 DISK USED  *         3.26 GB
 **********************************************************************************************************************************


 Program * Restricted Hartree-Fock

 Orbital guess generated from atomic densities. Full valence occupancy:   11   3

 Initial occupancy:   7   2

 NELEC=   18   SYM=1   MS2= 0   THRE=1.0D-08   THRD=3.2D-06   THRG=3.2D-06  HFMA2=F  DIIS_START=2   DIIS_MAX=10   DIIS_INCORE=F

 Level shifts:    0.00 (CLOSED)    0.00 (OPEN)    0.30 (GAP_MIN)

 ITER           ETOT              DE          GRAD        DDIFF     DIIS  NEXP   TIME(IT)  TIME(TOT)  DIAG
   1     -115.06159340    -115.06159340     0.00D+00     0.52D-01     0     0       7.03     14.60    start
   2     -115.08990197      -0.02830857     0.58D-02     0.53D-02     1     0       7.11     21.71    diag
   3     -115.09744947      -0.00754750     0.32D-02     0.17D-02     2     0       7.13     28.84    diag
   4     -115.09798204      -0.00053257     0.63D-03     0.47D-03     3     0       7.64     36.48    diag
   5     -115.09801632      -0.00003429     0.13D-03     0.11D-03     4     0       7.15     43.63    diag
   6     -115.09801787      -0.00000155     0.24D-04     0.23D-04     5     0       7.17     50.80    diag
   7     -115.09801794      -0.00000007     0.49D-05     0.54D-05     6     0       7.10     57.90    diag
   8     -115.09801795      -0.00000000     0.12D-05     0.14D-05     7     0       7.06     64.96    fixocc
   9     -115.09801795      -0.00000000     0.39D-06     0.36D-06     0     0       7.13     72.09    diag

 Final occupancy:   7   2

 !RHF STATE 1.1 Energy               -115.098017948968
  RHF One-electron energy            -236.587666106259
  RHF Two-electron energy              81.325915148571
  RHF Kinetic energy                  114.949109672257
  RHF Nuclear energy                   40.163733008720
  RHF Virial quotient                  -1.001295427839

 !RHF STATE 1.1 Dipole moment           0.00000000     0.59190874    -0.41133343
 Dipole moment /Debye                   0.00000000     1.50448196    -1.04550531

 Orbital energies:

           1.1          2.1          3.1          4.1          5.1          6.1          7.1          8.1          9.1
    -20.556369   -11.272240    -1.354228    -0.926024    -0.688304    -0.595840    -0.504083     0.045075     0.048985

           1.2          2.2          3.2          4.2
     -0.619177    -0.451613     0.056062     0.125954


 HOMO      2.2    -0.451613 =     -12.2890eV
 LUMO      8.1     0.045075 =       1.2266eV
 LUMO-HOMO         0.496688 =      13.5156eV

 Orbitals saved in record  2100.2


 **********************************************************************************************************************************
 DATASETS  * FILE   NREC   LENGTH (MB)   RECORD NAMES
              1      19      983.65       500      610      700      900      950      970     1000      129      960     1100   
                                          VAR    BASINP    GEOM    SYMINP    ZMAT    AOBASIS   BASIS     P2S    ABASIS      S 
                                         1400     1410     1200     1210     1080     1600     1650     1300     1700   
                                           T        V       H0       H01     AOSYM     SMH    MOLCAS    ERIS     OPER   

              2       4        0.89       700     1000      520     2100   
                                         GEOM     BASIS   MCVARS     RHF  

 PROGRAMS   *        TOTAL    HF-SCF       INT
 CPU TIMES  *       133.73     72.17     61.43
 REAL TIME  *        32.87 SEC
 DISK USED  *         3.26 GB
 **********************************************************************************************************************************


 PROGRAM * MP2 (Closed-shell)     Authors: C. Hampel, H.-J. Werner, 1991, M. Deegan, P.J. Knowles, 1992

                                   MP2-F12 implementation by H.-J. Werner, 2007

                   Density fitting integral evaluation by F.R. Manby, 2003,2007, G. Knizia, 2010


 Basis set VTZ-F12/JKFIT generated.      Number of basis functions:   392 
 Basis set CC-PVTZ-F12/OPTRI generated.  Number of basis functions:   314 
 Basis set AUG-CC-PVTZ-F12/MP2FIT generated. Number of basis functions:   396 

 Convergence thresholds:  THRVAR = 1.00D-08  THRDEN = 1.00D-06

 Number of core orbitals:           2 (   2   0 )
 Number of closed-shell orbitals:   7 (   5   2 )
 Number of external orbitals:     225 ( 139  86 )

 Molecular orbitals read from record     2100.2  Type=RHF/CANONICAL  

 MP2-F12 correlation treatment (H.-J. Werner, 2006)
 ==================================================

 Using MP2-F12 with ansatz 3C(FIX)

 Using projected zeroth-order Hamiltonian (+Z)

 FOCKRIB=T FOCKRIC=T FOCKRIP=T CABSP=T CABSA=T CABSK=T CABSF=T GBC=F EBC=F DMAT=T NOFIK=T NOPAO=1 SOLVE=-1  USEPAO=0
 EXCH_A= T EXCH_B= F EXCH_C= F EXCH_P= F

 Geminal basis:    OPTFULL  GEM_TYPE=SLATER  BETA=1.0  NGEM=6

 Optimizing Gaussian exponents for each gem_beta

 Geminal optimization for beta= 1.0000
 Weight function:   m=0, omega= 1.4646

 Augmented Hessian optimization of geminal fit. Trust ratio= 0.40000
 Convergence reached after   2 iterations. Final gradient= 8.66D-16, Step= 4.23D-06, Delta= 1.28D-09

 Alpha:                 0.19532     0.81920     2.85917     9.50073    35.69989   197.79328
 Coeff:                 0.27070     0.30552     0.18297     0.10986     0.06810     0.04224


 Symmetry turned off. Reference energy:       -115.098017948968

 All pairs explicitly correlated. Number of r12-pairs:           28

 Excluding core orbitals from MO domains

 AO(A)-basis ORBITAL           loaded. Number of functions:     234
 RI(R)-basis CC-PVTZ-F12/OPTRI loaded. Number of functions:     314
 DF-basis VTZ-F12/JKFIT        loaded. Number of functions:     392

 Screening thresholds:   THRAO=  1.00D-10  THRMO=  1.00D-09  THRPROD=  1.00D-09
                         THRSW=  1.00D-05  THROV=  1.00D-12  THRAOF12= 1.00D-08

 CPU time for Fock operators                      7.46 sec

 Construction of ABS:
 Smallest eigenvalue of S          4.21E-04  (threshold= 1.00E-08)
 Ratio eigmin/eigmax               5.39E-05  (threshold= 1.00E-09)
 Smallest eigenvalue of S kept     4.21E-04  (threshold= 4.21E-04, 0 functions deleted, 314 kept)

 Construction of CABS:
 Smallest eigenvalue of S          1.72E-07  (threshold= 1.00E-08)
 Ratio eigmin/eigmax               1.72E-07  (threshold= 1.00E-09)
 Smallest eigenvalue of S kept     1.72E-07  (threshold= 1.72E-07, 0 functions deleted, 314 kept)

 CPU time for CABS singles                        0.51 sec

 CABS-singles contribution of  -0.00127196 patched into reference energy.
 New reference energy        -115.09928991

 AO(A)-basis ORBITAL           loaded. Number of functions:     234
 RI(R)-basis CC-PVTZ-F12/OPTRI loaded. Number of functions:     314
 DF-basis AUG-CC-PVTZ-F12/MP2FIloaded. Number of functions:     396

 Screening thresholds:   THRAO=  1.00D-10  THRMO=  1.00D-09  THRPROD=  1.00D-09
                         THRSW=  1.00D-05  THROV=  1.00D-12  THRAOF12= 1.00D-08

 CPU time for 3-index integral evaluation         8.29 sec
 CPU time for first  half transformation          1.29 sec ( 2910.4 MFLOP/sec)
 CPU time for second half transformation          0.03 sec ( 2724.3 MFLOP/sec)
 CPU time for sorting                             0.04 sec
 CPU time for fitting                             0.12 sec (10519.7 MFLOP/sec)
 CPU time for tilde quantities                    0.24 sec ( 7318.1 MFLOP/sec)
 CPU time for assembly                            1.03 sec (15802.5 MFLOP/sec)
 CPU time for tranop_f12                          2.60 sec ( 9262.3 MFLOP/sec)
 CPU time for f12 integrals (total)              17.75 sec, Elapsed time:      7.22 sec
 CPU time for f12 matrices (total)                0.80 sec, Elapsed time:      0.11 sec

 Diagonal F12 approximation with fixed coefficients:  TSING= 0.500,  TTRIP= 0.250 (scaled by -1/beta)

 DF-MP2-F12 energy corrections:
 ==============================
 Approx.                                    Singlet             Triplet             Total
 DF-MP2-F12/3*C(DX,FIX)                -0.037641160677     -0.004108228262     -0.041749388939
 DF-MP2-F12/3*C(FIX)                   -0.035419776297     -0.003806640128     -0.039226416426
 DF-MP2-F12/3C(FIX)                    -0.035346187324     -0.003936863411     -0.039283050735

 DF-MP2-F12 correlation energies:
 ================================
 Approx.                                    Singlet             Triplet             Ecorr            Total Energy
 DF-MP2                                -0.292007880664     -0.152494178196     -0.444502058860   -115.543791972378
 DF-MP2-F12/3*C(DX,FIX)                -0.329649041341     -0.156602406458     -0.486251447798   -115.585541361316
 DF-MP2-F12/3*C(FIX)                   -0.327427656961     -0.156300818324     -0.483728475286   -115.583018388803
 DF-MP2-F12/3C(FIX)                    -0.327354067988     -0.156431041607     -0.483785109595   -115.583075023113

 SCS-DF-MP2 energies (F_SING= 1.20000  F_TRIP= 0.62222  F_PARALLEL= 0.33333):
 ============================================================================
 SCS-DF-MP2                            -0.445294723230   -115.544584636747
 SCS-DF-MP2-F12/3*C(DX,FIX)            -0.493020346960   -115.592310260478
 SCS-DF-MP2-F12/3*C(FIX)               -0.490167030867   -115.589456944384
 SCS-DF-MP2-F12/3C(FIX)                -0.490159751919   -115.589449665437

 Symmetry restored.
 Symmetry transformation completed.

 Number of N-1 electron functions:               7
 Number of N-2 electron functions:              28
 Number of singly external CSFs:               867
 Number of doubly external CSFs:            627264
 Total number of CSFs:                      628132

 Length of J-op  integral file:             141.53 MB
 Length of K-op  integral file:             185.29 MB

 Integral transformation finished. Total CPU:  13.12 sec, npass=  1  Memory used:   1.16 MW

 ITER.      SQ.NORM     CORR.ENERGY   TOTAL ENERGY   ENERGY CHANGE     VAR   MIC
   1      1.00000000    -0.44457017  -115.54386009    -0.44457017  0.00D+00   0
   2      1.11528821    -0.44457071  -115.54386062    -0.00000054  0.17D-06   0
   3      1.11528821    -0.44457071  -115.54386062    -0.00000000  0.41D-12   0

 Solving MP2-F12 equations

   1      1.11527749    -0.48314930  -115.58243922    -0.03857859 -0.22D-04   0
   2      1.11527749    -0.48385106  -115.58314097    -0.00070175  0.60D-10   0
   3      1.11527749    -0.48385106  -115.58314097    -0.00000000  0.86D-16   0

 CPU TIME FOR ITERATIVE MP2:    1.65 SEC


 MP2-F12 energy corrections:
 ===========================
 Approx.                                    Singlet             Triplet             Total
 MP2-F12/3*C(DX,FIX)                   -0.037641160677     -0.004108228262     -0.041749388939
 MP2-F12/3*C(FIX)                      -0.035419776297     -0.003806640128     -0.039226416426
 MP2-F12/3C(FIX)                       -0.035341077354     -0.003939268937     -0.039280346290

 MP2-F12 correlation energies:
 =============================
 Approx.                                    Singlet             Triplet             Ecorr            Total Energy
 MP2                                   -0.292207661460     -0.152363047914     -0.444570709375   -115.543860622893
 MP2-F12/3*C(DX,FIX)                   -0.329848822137     -0.156471276177     -0.486320098313   -115.585610011831
 MP2-F12/3*C(FIX)                      -0.327627437758     -0.156169688043     -0.483797125801   -115.583087039318
 MP2-F12/3C(FIX)                       -0.327548738814     -0.156302316851     -0.483851055665   -115.583140969183

 SCS-MP2 energies (F_SING= 1.20000  F_TRIP= 0.62222  F_PARALLEL= 0.33333):
 =========================================================================
 SCS-MP2                               -0.445452868010   -115.544742781528
 SCS-MP2-F12/3*C(DX,FIX)               -0.493178491741   -115.592468405259
 SCS-MP2-F12/3*C(FIX)                  -0.490325175647   -115.589615089165
 SCS-MP2-F12/3C(FIX)                   -0.490313261506   -115.589603175024


  Reference energy                   -115.098017948968
  F12 singles correction               -0.001271964550

 F12 singles corrections added to reference energy

  New reference energy               -115.099289913518

  F12/3C(F) singlet correction         -0.035341077354
  F12/3C(F) triplet correction         -0.003939268937
  F12/3C(F) total correction           -0.039280346290
  MP2-F12/3C(F) singlet pair energy    -0.327548738814
  MP2-F12/3C(F) triplet pair energy    -0.156302316851
  MP2-F12/3C(F) correlation energy     -0.483851055665

 !MP2-F12/3C(F) total energy         -115.583140969183


 **********************************************************************************************************************************
 DATASETS  * FILE   NREC   LENGTH (MB)   RECORD NAMES
              1      20      993.06       500      610      700      900      950      970     1000      129      960     1100   
                                          VAR    BASINP    GEOM    SYMINP    ZMAT    AOBASIS   BASIS     P2S    ABASIS      S 
                                         1400     1410     1200     1210     1080     1600     1650     1300     1700     1380   
                                           T        V       H0       H01     AOSYM     SMH    MOLCAS    ERIS     OPER     JKOP   

              2       7        1.24       700     1000      520     2100     7360     7350     7000   
                                         GEOM     BASIS   MCVARS     RHF    F12ABS    EF12   

 PROGRAMS   *        TOTAL   MP2-F12    HF-SCF       INT
 CPU TIMES  *       178.60     44.83     72.17     61.43
 REAL TIME  *        49.13 SEC
 DISK USED  *         3.26 GB
 **********************************************************************************************************************************


 PROGRAM * CCSD (Closed-shell coupled cluster)     Authors: C. Hampel, H.-J. Werner, 1991, M. Deegan, P.J. Knowles, 1992

                                  CCSD-F12 implementation by  H.-J. Werner, 2007

                   Density fitting integral evaluation by F.R. Manby, 2003,2007, G. Knizia, 2010



 Convergence thresholds:  THRVAR = 1.00D-08  THRDEN = 1.00D-06

 CCSD(T)     terms to be evaluated (factor= 1.000)


 Number of core orbitals:           2 (   2   0 )
 Number of closed-shell orbitals:   7 (   5   2 )
 Number of external orbitals:     225 ( 139  86 )

 Molecular orbitals read from record     2100.2  Type=RHF/CANONICAL  

 MP2-F12 correlation treatment (H.-J. Werner, 2006)
 ==================================================

 Using MP2-F12 with ansatz 3C(FIX)

 Using projected zeroth-order Hamiltonian (+Z)

 FOCKRIB=T FOCKRIC=T FOCKRIP=T CABSP=T CABSA=T CABSK=T CABSF=T GBC=F EBC=F DMAT=T NOFIK=T NOPAO=1 SOLVE=-1  USEPAO=0
 EXCH_A= T EXCH_B= F EXCH_C= F EXCH_P= F

 Geminal basis:    OPTFULL  GEM_TYPE=SLATER  BETA=1.0  NGEM=6

 Optimizing Gaussian exponents for each gem_beta

 Geminal optimization for beta= 1.0000
 Weight function:   m=0, omega= 1.4646

 Augmented Hessian optimization of geminal fit. Trust ratio= 0.40000
 Convergence reached after   2 iterations. Final gradient= 8.66D-16, Step= 4.23D-06, Delta= 1.28D-09

 Alpha:                 0.19532     0.81920     2.85917     9.50073    35.69989   197.79328
 Coeff:                 0.27070     0.30552     0.18297     0.10986     0.06810     0.04224


 Symmetry turned off. Reference energy:       -115.098017948968

 All pairs explicitly correlated. Number of r12-pairs:           28

 Excluding core orbitals from MO domains

 AO(A)-basis ORBITAL           loaded. Number of functions:     234
 RI(R)-basis CC-PVTZ-F12/OPTRI loaded. Number of functions:     314
 DF-basis VTZ-F12/JKFIT        loaded. Number of functions:     392

 Screening thresholds:   THRAO=  1.00D-10  THRMO=  1.00D-09  THRPROD=  1.00D-09
                         THRSW=  1.00D-05  THROV=  1.00D-12  THRAOF12= 1.00D-08

 CPU time for Fock operators                      7.52 sec

 Construction of ABS:
 Smallest eigenvalue of S          4.21E-04  (threshold= 1.00E-08)
 Ratio eigmin/eigmax               5.39E-05  (threshold= 1.00E-09)
 Smallest eigenvalue of S kept     4.21E-04  (threshold= 4.21E-04, 0 functions deleted, 314 kept)

 Construction of CABS:
 Smallest eigenvalue of S          1.72E-07  (threshold= 1.00E-08)
 Ratio eigmin/eigmax               1.72E-07  (threshold= 1.00E-09)
 Smallest eigenvalue of S kept     1.72E-07  (threshold= 1.72E-07, 0 functions deleted, 314 kept)

 CPU time for CABS singles                        0.16 sec

 CABS-singles contribution of  -0.00127196 patched into reference energy.
 New reference energy        -115.09928991

 AO(A)-basis ORBITAL           loaded. Number of functions:     234
 RI(R)-basis CC-PVTZ-F12/OPTRI loaded. Number of functions:     314
 DF-basis AUG-CC-PVTZ-F12/MP2FIloaded. Number of functions:     396

 Screening thresholds:   THRAO=  1.00D-10  THRMO=  1.00D-09  THRPROD=  1.00D-09
                         THRSW=  1.00D-05  THROV=  1.00D-12  THRAOF12= 1.00D-08

 CPU time for 3-index integral evaluation         8.19 sec
 CPU time for first  half transformation          1.24 sec ( 3027.7 MFLOP/sec)
 CPU time for second half transformation          0.05 sec ( 1634.6 MFLOP/sec)
 CPU time for sorting                             0.04 sec
 CPU time for fitting                             0.16 sec ( 7889.8 MFLOP/sec)
 CPU time for tilde quantities                    0.17 sec (10331.4 MFLOP/sec)
 CPU time for assembly                            1.04 sec (15650.6 MFLOP/sec)
 CPU time for tranop_f12                          2.61 sec ( 9226.8 MFLOP/sec)
 CPU time for f12 integrals (total)              17.55 sec, Elapsed time:      7.14 sec
 CPU time for f12 matrices (total)                0.79 sec, Elapsed time:      0.11 sec

 Diagonal F12 approximation with fixed coefficients:  TSING= 0.500,  TTRIP= 0.250 (scaled by -1/beta)

 DF-MP2-F12 energy corrections:
 ==============================
 Approx.                                    Singlet             Triplet             Total
 DF-MP2-F12/3*C(DX,FIX)                -0.037641160677     -0.004108228262     -0.041749388939
 DF-MP2-F12/3*C(FIX)                   -0.035419776297     -0.003806640128     -0.039226416426
 DF-MP2-F12/3C(FIX)                    -0.035346187324     -0.003936863411     -0.039283050735

 DF-MP2-F12 correlation energies:
 ================================
 Approx.                                    Singlet             Triplet             Ecorr            Total Energy
 DF-MP2                                -0.292007880664     -0.152494178196     -0.444502058860   -115.543791972378
 DF-MP2-F12/3*C(DX,FIX)                -0.329649041341     -0.156602406458     -0.486251447798   -115.585541361316
 DF-MP2-F12/3*C(FIX)                   -0.327427656961     -0.156300818324     -0.483728475286   -115.583018388803
 DF-MP2-F12/3C(FIX)                    -0.327354067988     -0.156431041607     -0.483785109595   -115.583075023113

 SCS-DF-MP2 energies (F_SING= 1.20000  F_TRIP= 0.62222  F_PARALLEL= 0.33333):
 ============================================================================
 SCS-DF-MP2                            -0.445294723230   -115.544584636747
 SCS-DF-MP2-F12/3*C(DX,FIX)            -0.493020346960   -115.592310260478
 SCS-DF-MP2-F12/3*C(FIX)               -0.490167030867   -115.589456944384
 SCS-DF-MP2-F12/3C(FIX)                -0.490159751919   -115.589449665437

 Symmetry restored.
 Symmetry transformation completed.

 Number of N-1 electron functions:               7
 Number of N-2 electron functions:              28
 Number of singly external CSFs:               867
 Number of doubly external CSFs:            627264
 Total number of CSFs:                      628132

 Length of J-op  integral file:             141.70 MB
 Length of K-op  integral file:             185.29 MB
 Length of 3-ext integral record:             0.00 MB

 Memory could be reduced to 56.27 Mwords without degradation in triples

 Integral transformation finished. Total CPU:  38.19 sec, npass=  1  Memory used:  17.06 MW

 Reference energy:                   -115.09928991

 Adding F12 terms to K(Cij), methodcc=6,  factor= 1.0

 ITER.      SQ.NORM     CORR.ENERGY   TOTAL ENERGY   ENERGY CHANGE        DEN1      VAR(S)    VAR(P)  DIIS     TIME  TIME/IT
   1      1.11819656    -0.45380757  -115.55309748    -0.00923740     0.00183863  0.15D-02  0.19D-02  1  1   149.40     7.73
   2      1.12571589    -0.45421049  -115.55350040    -0.00040292    -0.00913343  0.25D-04  0.24D-03  2  2   214.63     7.07
   3      1.12849879    -0.45439090  -115.55368081    -0.00018041    -0.00188894  0.15D-04  0.14D-04  3  3   268.82     6.48
   4      1.12946620    -0.45440873  -115.55369864    -0.00001783    -0.00060342  0.95D-06  0.13D-05  4  4   320.01     6.09
   5      1.12963127    -0.45441035  -115.55370026    -0.00000162    -0.00004177  0.28D-06  0.12D-06  5  5   379.10     6.01
   6      1.12967824    -0.45440798  -115.55369789     0.00000237    -0.00000455  0.45D-07  0.13D-07  6  6   425.70     5.82
   7      1.12969120    -0.45440706  -115.55369697     0.00000092    -0.00000319  0.56D-08  0.22D-08  6  1   472.90     5.75
   8      1.12969341    -0.45440704  -115.55369696     0.00000001     0.00000026  0.11D-08  0.35D-09  6  3   524.46     5.67

 Norm of t1 vector:      0.05064843      S-energy:    -0.00000044      T1 diagnostic:  0.00957165
                                                                       D1 diagnostic:  0.02033965
                                                                       D2 diagnostic:  0.13699232 (internal)
