 --invoking executable--
/nfs/workspaces/public/cfour_mpi/bin/xjoda


   *************************************************************************
         <<<     CCCCCC     CCCCCC   |||     CCCCCC     CCCCCC   >>>
       <<<      CCC        CCC       |||    CCC        CCC         >>>
      <<<      CCC        CCC        |||   CCC        CCC            >>>
    <<<        CCC        CCC        |||   CCC        CCC              >>>
      <<<      CCC        CCC        |||   CCC        CCC            >>>
       <<<      CCC        CCC       |||    CCC        CCC         >>>
         <<<     CCCCCC     CCCCCC   |||     CCCCCC     CCCCCC   >>>
   *************************************************************************

     ****************************************************************
     * CFOUR Coupled-Cluster techniques for Computational Chemistry *
     ****************************************************************
 

   Department of Chemistry                Institut fuer Physikalische Chemie
   University of Florida                  Universitaet Mainz
   Gainesville, FL 32611, USA             D-55099 Mainz, Germany

   Department of Chemistry                Fakultaet fuer Chemie und Biowiss.
   Johns Hopkins University               Karlsruher Institut fuer Technologie
   Baltimore, MD 21218, USA               D-76131 Karlsruhe, Germany

   Department of Chemistry                Department of Physical Chemistry
   Southern Methodist University          Eotvos Lorand University
   Dallas, TX 75275, USA                  H-1053 Budapest, Hungary

 
                       Version 2.1
 
                     vincent.theory.phys.ucl.ac.uk                     
                     Thu 13 Feb 10:46:11 GMT 2025                      
                     integer*8 version is running
 
********************************************************************************
*                          Input from ZMAT file                                *
********************************************************************************
Methanol CCSDT/aug-cc-pVDZ                                                      
C                                                                               
O 1 rco                                                                         
H 2 roh 1 acoh                                                                  
H 1 rch1 2 aoch1 3 ahh1                                                         
H 1 rch2 2 aoch2 3 ahh2                                                         
H 1 rch3 2 aoch3 3 ahh3                                                         
                                                                                
rco=1.4296                                                                      
roh=0.95887                                                                     
rch1=1.092294                                                                   
rch2=1.092294                                                                   
rch3=1.092294                                                                   
acoh=107.9812                                                                   
aoch1=110.6646                                                                  
aoch2=110.6646                                                                  
aoch3=110.6646                                                                  
ahh1=60.00                                                                      
ahh2=180.00                                                                     
ahh3=300.00                                                                     
                                                                                
                                                                                
*CFOUR(CALC=CCSDT(Q),BASIS=AUG-PVDZ,SCF_CONV=10                                 
CC_CONV=10,FROZEN_CORE=ON,MEMORY=5000000000)                                    
********************************************************************************
    -------------------------------------------------------------------
                    CFOUR Control Parameters 
    -------------------------------------------------------------------
        External           Internal           Value            Units
          Name               Name
    -------------------------------------------------------------------
       ABCDTYPE             IABCDT         STANDARD    [  0]    ***   
       ANHARMONIC           IANHAR         OFF         [  0]    ***   
       ANH_ALGORIT          IANALG         STANDARD    [  0]    ***   
       ANH_DERIVAT          IANDER         SECOND      [  1]    ***   
       ANH_MODE             ANHMOD         VIBRATION   [  0]    ***   
       ANH_STEPSIZ          ICUBST             50000          x 10-6  
       ANH_SYMMETR          IANHSM         ABELIAN     [  0]    ***   
       AO_LADDERS           IAOLAD         SINGLEPASS  [  1]    ***   
       AV_SCF               IAVSCF         OFF         [  0]    ***   
       BASIS                IBASIS         AUG-PVDZ    [ 33]    ***   
       BOTHVECTORS          BOTHVC         OFF         [  0]    ***   
       BOX_POTENT           IPIAB          OFF         [  0]    ***   
       BREIT                IBREIT         OFF         [  0]    ***   
       BRUCK_CONV           IBRTOL          10D-  4             ***   
       BRUECKNER            IBRKNR         OFF         [  0]    ***   
       BUFFERSIZE           IBUFFS              4096            ***   
       CACHE_RECS           ICHREC             10               ***   
       CALCLEVEL            ICLLVL         CCSDT(Q)    [ 54]    ***   
       CCORBOPT             ICCORB         OFF         [  0]  x 0.01  
       CC_CONV              ICCCNV          10D- 10             ***   
       CC_EXPORDER          ICCEOR              5               ***   
       CC_EXTRAPOL          ICCEXT         DIIS        [  1]    ***   
       CC_GUESS             ICCGES         MP2         [  0]    ***   
       CC_MAXCYC            ICCCYC            100              cycles 
       CC_PROGRAM           ICCPRO         NCC         [  5]    ***   
       CHARGE               ICHRGE              0               ***   
       CHOLESKY             ICHOLE         OFF         [  0]    ***   
       CIS_CONV             ICISTL              5               ***   
       COMM_SIZE            IPSIZE            ***               ***   
       CONSTANT             ICONST         OLD         [  1]    ***   
       CONTINUUM            ICONTU         NONE        [  0]    ***   
       CONTRACTION          ICNTYP         GENERAL     [  1]    ***   
       COORDINATES          ICOORD         INTERNAL    [  0]    ***   
       CPHF_CONVER          ICPHFT          10D- 16             ***   
       CPHF_MAXCYC          ICPHFC             64              cycles 
       CUBIC                ICUBIC         OFF         [  0]    ***   
       CURVILINEAR          ICURVY         OFF         [  0]    ***   
       DBOC                 IDBOC          OFF         [  0]    ***   
       DCT                  IDCT           OFF         [  0]    ***   
       DERIV_LEV            IDRLVL         ZERO        [  0]    ***   
       DEVMEM_SIZE          IDVMEM          50000000           MByte  
       DIAG_MRCC            IEOMST          10D-  0             ***   
       DIFF_TYPE            IDIFTY         RELAXED     [  0]    ***   
       DIRECT               IDIRCT         OFF         [  0]    ***   
       DROPMO               IDRPMO      NONE         
       ECP                  IECP           OFF         [  0]    ***   
       EIGENVECTOR          IVEC                1               ***   
       EL_ANHARM            IELANH         OFF         [  0]    ***   
       EOMFOLLOW            IEOMSR         ENERGY      [  0]    ***   
       EOMIP                IEOMIP         OFF         [  0]    ***   
       EOMLEVEL             HBARFM         SAME        [  0]    ***   
       EOM_MRCC             IMRCCE         NEW         [  1]    ***   
       EOM_NONIT            EOMNON         OFF         [  0]    ***   
       EOM_NSING            IEOMSI          10D-  0             ***   
       EOM_NSTATES          IMRCCD         DAVIDSON    [  0]    ***   
       EOM_NTRIP            IEOMTR          10D-  0             ***   
       EOM_ORDER            IEXORD         ENERGY      [  0]    ***   
       EOM_PROPSTA          IEOMST              0               ***   
       ESTATE_CONV          IEXTOL          10D-  5             ***   
       ESTATE_DIAG          IEXDIG         ITERATIVE   [  0]    ***   
       ESTATE_LOCK          IESLOC         ON          [  1]    ***   
       ESTATE_MAXC          IEXMXC             40               ***   
       ESTATE_PROP          IEXPRP         OFF         [  0]    ***   
       EVAL_HESS            IRECAL              0            # of cyc.
       EXCITATION           IEXCIT              0               ***   
       EXCITE               IEXCIT         NONE        [  0]    ***   
       EXTERN_POT           IEXPOT         OFF         [  0]    ***   
       FCGRADNEW            IFCGNW         OFF         [  0]    ***   
       FC_FIELD             IFINFC              0             x 10-6  
       FD_CALTYPE           IFDCAL         GRADONLY    [  0]    ***   
       FD_PROJECT           IFDPRJ         OFF         [  1]    ***   
       FD_STEPSIZE          IDISFD              0            10-4 bohr
       FD_USEGROUP          IFDGRP         FULL        [  0]    ***   
       FILE_RECSIZ          IFLREC              4096           words  
       FINITE_PERT          IFIPER              0             x 10-6  
       FIXGEOM              IFIXGM         OFF         [  0]    ***   
       FOCK                 IFOCK          AO          [  1]    ***   
       FREQ_ALGORI          IVIALG         STANDARD    [  0]    ***   
       FROZEN_CORE          IFROCO         ON          [  1]    ***   
       GAMMA_ABCD           IGABCD         STORE       [  0]    ***   
       GAMMA_ABCI           IGABCI         STORE       [  0]    ***   
       GENBAS_1             IGNBS1              0               ***   
       GENBAS_2             IGNBS2              0               ***   
       GENBAS_3             IGNBS3              0               ***   
       GENBAS_4             IGNBS4              0               ***   
       GEO_CONV             ICONTL              5              H/bohr 
       GEO_MAXCYC           IOPTCY             50               ***   
       GEO_MAXSTEP          IMXSTP            300            millibohr
       GEO_METHOD           INR            SINGLE_POINT[  5]    ***   
       GIAO                 IGIAO          OFF         [  1]    ***   
       GIMIC                IGIMIC         OFF         [  0]    ***   
       GRID                 IGRID          OFF         [  0]    ***   
       GRID_ALGO            IGALGO         SERIAL      [  0]    ***   
       GUESS                IGUESS         MOREAD      [  0]    ***   
       HBAR                 IHBAR          OFF         [  0]    ***   
       HESS_TYPE            IHESTP         SCF         [  0]    ***   
       HF2_FILE             IHF2Fl         USE         [  1]    ***   
       HFSTABILITY          ISTABL         OFF         [  0]    ***   
       INCORE               INCORE         OFF         [  0]    ***   
       INPUT_MRCC           IMRCC          ON          [  1]    ***   
       INTEGRALS            INTTYP         VMOL        [  1]    ***   
       JODA_PRINT           IJPRNT              0               ***   
       KEYWORD_OUT          IDMPKW         NO          [  0]    ***   
       LINDEP_TOL           ILINDP              8               ***   
       LINEQ_CONV           IZTACN          10D-  7           cycles  
       LINEQ_EXPOR          ILMAXD              5               ***   
       LINEQ_MAXCY          ILMAXC            100               ***   
       LINEQ_TYPE           ILTYPE         DIIS        [  1]    ***   
       LOCK_ORBOCC          ILOCOC         OFF         [  0]    ***   
       MEMORY_SIZE          IMEMSZ         *********           words  
       MEM_UNIT             IMEMU          INTEGERWORDS[  0]    ***   
       MRCC                 IMRCCC         OFF         [  0]    ***   
       MULTIPLICTY          IMULTP              1               ***   
       NACOUPLING           IVCOUP         OFF         [  0]    ***   
       NEGEVAL              IDIE           ABORT       [  0]    ***   
       NEWNORM              INEWNO         OFF         [  0]    ***   
       NON-HF               INONHF         OFF         [  0]    ***   
       NTOP_TAMP            ITOPT2             15               ***   
       NUC_MODEL            INUCMO         POINT       [  0]    ***   
       OCCUPATION           IOCCU   ESTIMATED BY SCF 
       OPEN-SHELL           IOPEN          SPIN-ORBITAL[  0]    ***   
       OPTVIB               IOPTVB         OFF         [  0]    ***   
       ORBITALS             IORBTP         STANDARD    [  0]    ***   
       PARALLEL             IPARAL         ON          [  1]    ***   
       PARA_INT             IPINTS         ON          [  1]    ***   
       PARA_PRINT           IPPRIN              0               ***   
       PERT_ORB             IPTORB         STANDARD    [  0]    ***   
       POINTS               IGRDFD              0               ***   
       PRINT                IPRNT               0               ***   
       PROPS                IPROPS         OFF         [  0]    ***   
       PROP_INTEGR          IINTYP         INTERNAL    [  0]    ***   
       PSI                  IPSI           OFF         [  0]    ***   
       QC_ALG               IQCALG         FLM         [  0]    ***   
       QC_LINALG            IQCLIN         TRIDIAG     [  2]    ***   
       QC_MAXCYC            IQCMAX          10D-100           cycles  
       QC_MAXSCFCY          IQCMSC          10D- 15           cycles  
       QC_RTRUST            IQCRTR          10D-  0           x 10-3  
       QC_SKIPSCF           IQCSKI         OFF         [  0]    ***   
       QC_START             IQCSTA          10D-  1             ***   
       QRHFGUESS            IQGUES         OFF         [  0]    ***   
       QUARTIC              IQUART         OFF         [  0]    ***   
       RAMAN_INT            IRAMIN         OFF         [  0]    ***   
       RAMAN_ORB            IRAMRE         UNRELAXED   [  0]    ***   
       RDO                  IRDOFM         OFF         [  0]    ***   
       REDUCE_REPR          REDREP         Ir          [  0]    ***   
       REFERENCE            IREFNC         RHF         [  0]    ***   
       RELATIVIST           IRELAT         OFF         [  0]    ***   
       RELAX_DENS           IRDENS         OFF         [  0]    ***   
       RESET_FLAGS          IRESET         OFF         [  0]    ***   
       RESTART_CC           ICCRES         OFF         [  0]    ***   
       ROT_EVEC             ROTVEC              0               ***   
       SAVE_INTS            ISVINT         OFF         [  0]    ***   
       SCALE_ON             ISTCRT              0               ***   
       SCF_CONV             ISCFCV          10D- 10             ***   
       SCF_DAMPING          IDAMP               0             x 10-3  
       SCF_EXPORDE          IRPPOR              6               ***   
       SCF_EXPSTAR          IRPPLS              8               ***   
       SCF_EXTRAPO          IRPP           ON          [  1]    ***   
       SCF_MAXCYC           ISCFCY            150              cycles 
       SCF_NOSTOP           ISCFST         OFF         [  0]    ***   
       SCF_PRINT            ISCFPR              0               ***   
       SCF_PROG             ISCFPR         SCF         [  0]    ***   
       SD_FIELD             IFINSD              0             x 10-6  
       SOPERT               IPERSO         OFF         [  0]    ***   
       SPHERICAL            IDFGHI         ON          [  1]    ***   
       SPINORBIT            ISOCAL         OFF         [  0]    ***   
       SPINROTATIO          ISRCON         OFF         [  0]    ***   
       SPIN_FLIP            ISPFLP         OFF         [  0]    ***   
       SPIN_ORBIT           ISPORB         OFF         [  0]    ***   
       SPIN_SCAL            ISCSMP         OFF         [  0]    ***   
       STEEPSCALE           ISTPSC              1000          x 10-3  
       SUBGROUP             ISUBGP         DEFAULT     [  0]    ***   
       SUBGRPAXIS           ISBXYZ         X           [  0]    ***   
       SYMMETRY             ISYM           ON          [  0]    ***   
       SYM_CHECK            ISYMCK         OVERRIDE    [  1]    ***   
       T3_EXTRAPOL          IT3EXT         ON          [  1]    ***   
       T4_EXTRAPOL          IT4EXP         OFF         [  0]    ***   
       TAMP_SUM             IEVERY              5               ***   
       TESTSUITE            ITESTS         OFF         [  0]    ***   
       THERMOCH             ITHERM         OFF         [  0]    ***   
       TOL_CHOLESK          ITOLCH          10D-  4             ***   
       TRANGRAD             IRESRM         OFF         [  0]    ***   
       TRANS_INV            ITRAIN         USE         [  0]    ***   
       TREAT_PERT           ITREAT         SIMULTANEOUS[  0]    ***   
       TRIP_ALGORI          ITRALG         NORMAL      [  0]    ***   
       UIJ_THRESHO          IUIJTH              1               ***   
       UNITS                IUNITS         ANGSTROM    [  0]    ***   
       UNOS                 IUNOS          OFF         [  0]    ***   
       UPDATE_HESS          IHUPDT         ON          [  1]    ***   
       VIBPHASE             ISETPH         STANDARD    [  0]    ***   
       VIBRATION            IVIB           NO          [  0]    ***   
       VIB_ALGORIT          IGEALG         STANDARD    [  0]    ***   
       VNATORB              IVNORB         OFF         [  0]    ***   
       VTRAN                IVTRAN         FULL/PARTIAL[  0]    ***   
       XFIELD               IXEFLD              0             x 10-6  
       XFORM_TOL            IXFTOL          10D- 11             ***   
       YFIELD               IYEFLD              0             x 10-6  
       ZFIELD               IZEFLD              0             x 10-6  
       ZSCALE_EXP           IZEXPS         OFF         [  0]    ***   
    -------------------------------------------------------------------
   6 entries found in Z-matrix 
   Job Title : Methanol CCSDT/aug-cc-pVDZ                                                      
   There are 12 unique internal coordinates.
   Of these,  0 will be optimized.
   User supplied Z-matrix: 
--------------------------------------------------------------------------------
       SYMBOL    BOND      LENGTH    ANGLE     ANGLE     DIHED     ANGLE
                  TO      (ANGST)    WRT      (DEG)      WRT      (DEG)
--------------------------------------------------------------------------------
        C    
        O          1         rco  
        H          2         roh        1        acoh 
        H          1         rch1       2        aoch1      3        ahh1 
        H          1         rch2       2        aoch2      3        ahh2 
        H          1         rch3       2        aoch3      3        ahh3 
                  *Initial values for internal coordinates* 
                      Name             Value
                        rco             1.4296000000
                        roh             0.9588700000
                        acoh          107.9812000000
                        rch1            1.0922940000
                        aoch1         110.6646000000
                        ahh1           60.0000000000
                        rch2            1.0922940000
                        aoch2         110.6646000000
                        ahh2          180.0000000000
                        rch3            1.0922940000
                        aoch3         110.6646000000
                        ahh3          300.0000000000
--------------------------------------------------------------------------------
   Rotational constants (in cm-1): 
          0.7886529928             0.8177993362             4.3005298475
   Rotational constants (in MHz): 
      23643.2252354421         24517.0107511355        128926.6594294314
********************************************************************************
   The full molecular point group is C s .
   The largest Abelian subgroup of the full molecular point group is C s .
   The computational point group is C s .
********************************************************************************
--------------------------------------------------------------------------------
   Analysis of internal coordinates specified by Z-matrix 
--------------------------------------------------------------------------------
   *The nuclear repulsion energy is   40.163724591353905 a.u.
  *WARNING* Parameters aoch3 and aoch1 appear to be equivalent.
  *WARNING* Parameters rch3  and rch1  appear to be equivalent.
   *There are   8 degrees of freedom within the tot. symm. molecular subspace.
   *Z-matrix requests optimization of   0 coordinates.
   *The optimization is constrained.
   *The following   8 parameters can have non-zero 
    derivatives within the totally symmetric subspace:
             ahh3 [12]  aoch2[ 8]  aoch3[11]  acoh [ 3]  rch3 [10]  rch2 [ 7]
             roh  [ 2]  rco  [ 1]
   *The following   0 parameters are to be optimized:

   *The following coordinates must be varied in an  unconstrained optimization.
             ahh3 [12]  aoch2[ 8]  aoch3[11]  acoh [ 3]  rch3 [10]  rch2 [ 7]
             roh  [ 2]  rco  [ 1]
--------------------------------------------------------------------------------


 ----------------------------------------------------------------
         Coordinates used in calculation (QCOMP) 
 ----------------------------------------------------------------
 Z-matrix   Atomic            Coordinates (in bohr)
  Symbol    Number           X              Y              Z
 ----------------------------------------------------------------
     C         6        -1.38398499     0.02163516     0.00000000
     O         8         1.31350892    -0.12640344    -0.00000000
     H         1         1.96648604     1.56385463     0.00000000
     H         1        -2.05840161     1.02576779    -1.67258518
     H         1        -2.21715037    -1.86688192    -0.00000000
     H         1        -2.05840161     1.02576779     1.67258518
 ----------------------------------------------------------------
 
   Interatomic distance matrix (Angstroms) 
 
                 C             O             H             H             H    
                [ 1]        [ 2]        [ 3]        [ 4]        [ 5]
  C    [ 1]     0.00000
  O    [ 2]     1.42960     0.00000
  H    [ 3]     1.95180     0.95887     0.00000
  H    [ 4]     1.09229     2.08302     2.32397     0.00000
  H    [ 5]     1.09229     2.08302     2.86308     1.77019     0.00000
  H    [ 6]     1.09229     2.08302     2.32397     1.77019     1.77019
 
                 H    
                [ 6]
  H    [ 6]     0.00000
 rotcon2
   Rotational constants (in cm-1): 
          4.3005298475             0.8177993362             0.7886529928
   Rotational constants (in MHz): 
     128926.6594294314         24517.0107511355         23643.2252354421
  ECPDATA file not present.   Using default ECPDATA. 
  There are   2 frozen-core orbitals.
  There are   82 basis functions.
 @GEOPT-W, Archive file not created for single-point calculation.
 @CHECKOUT-I, Total execution time (CPU/WALL):        0.25/       0.30 seconds.
--executable xjoda finished with status     0 in        0.34 seconds (walltime).
 --invoking executable--
/nfs/workspaces/public/cfour_mpi/bin/xvmol
 SERIAL VERSION OF MOLECULE STARTED
********************************************************************************
                    INPUT FROM MOL FILE
********************************************************************************
INTGRL        1    0    1    0    0    0    0    0    0                         
         *** CFOUR Program System (Release V0.1) ***                            
Methanol CCSDT/aug-cc-pVDZ                                                      
    5    1 Z          0.10E-08              0    0                              
   9999.00      3.00                                                            
          6.00000000    1    3    1    1    1                                   
C #1  -1.383984987876833   0.021635155907871   0.000000000000000                
   10    4                                                                      
   6665.00000000000       6.920000000000000E-004 -1.460000000000000E-004        
  0.000000000000000E+000  0.000000000000000E+000                                
   1000.00000000000       5.329000000000000E-003 -1.154000000000000E-003        
  0.000000000000000E+000  0.000000000000000E+000                                
   228.000000000000       2.707700000000000E-002 -5.725000000000000E-003        
  0.000000000000000E+000  0.000000000000000E+000                                
   64.7100000000000       0.101718000000000      -2.331200000000000E-002        
  0.000000000000000E+000  0.000000000000000E+000                                
   21.0600000000000       0.274740000000000      -6.395500000000000E-002        
  0.000000000000000E+000  0.000000000000000E+000                                
   7.49500000000000       0.448564000000000      -0.149981000000000             
  0.000000000000000E+000  0.000000000000000E+000                                
   2.79700000000000       0.285074000000000      -0.127262000000000             
  0.000000000000000E+000  0.000000000000000E+000                                
  0.521500000000000       1.520400000000000E-002  0.544529000000000             
  0.000000000000000E+000  0.000000000000000E+000                                
  0.159600000000000      -3.191000000000000E-003  0.580496000000000             
   1.00000000000000       0.000000000000000E+000                                
  4.690000000000000E-002  0.000000000000000E+000  0.000000000000000E+000        
  0.000000000000000E+000   1.00000000000000                                     
    5    3                                                                      
   9.43900000000000       3.810900000000000E-002  0.000000000000000E+000        
  0.000000000000000E+000                                                        
   2.00200000000000       0.209480000000000       0.000000000000000E+000        
  0.000000000000000E+000                                                        
  0.545600000000000       0.508557000000000       0.000000000000000E+000        
  0.000000000000000E+000                                                        
  0.151700000000000       0.468842000000000        1.00000000000000             
  0.000000000000000E+000                                                        
  4.041000000000000E-002  0.000000000000000E+000  0.000000000000000E+000        
   1.00000000000000                                                             
    2    2                                                                      
  0.550000000000000        1.00000000000000       0.000000000000000E+000        
  0.151000000000000       0.000000000000000E+000   1.00000000000000             
          8.00000000    1    3    1    1    1                                   
O #2   1.313508917212465  -0.126403444570259  -0.000000000000001                
   10    4                                                                      
   11720.0000000000       7.100000000000000E-004 -1.600000000000000E-004        
  0.000000000000000E+000  0.000000000000000E+000                                
   1759.00000000000       5.470000000000000E-003 -1.263000000000000E-003        
  0.000000000000000E+000  0.000000000000000E+000                                
   400.800000000000       2.783700000000000E-002 -6.267000000000000E-003        
  0.000000000000000E+000  0.000000000000000E+000                                
   113.700000000000       0.104800000000000      -2.571600000000000E-002        
  0.000000000000000E+000  0.000000000000000E+000                                
   37.0300000000000       0.283062000000000      -7.092400000000000E-002        
  0.000000000000000E+000  0.000000000000000E+000                                
   13.2700000000000       0.448719000000000      -0.165411000000000             
  0.000000000000000E+000  0.000000000000000E+000                                
   5.02500000000000       0.270952000000000      -0.116955000000000             
  0.000000000000000E+000  0.000000000000000E+000                                
   1.01300000000000       1.545800000000000E-002  0.557368000000000             
  0.000000000000000E+000  0.000000000000000E+000                                
  0.302300000000000      -2.585000000000000E-003  0.572759000000000             
   1.00000000000000       0.000000000000000E+000                                
  7.896000000000000E-002  0.000000000000000E+000  0.000000000000000E+000        
  0.000000000000000E+000   1.00000000000000                                     
    5    3                                                                      
   17.7000000000000       4.301800000000000E-002  0.000000000000000E+000        
  0.000000000000000E+000                                                        
   3.85400000000000       0.228913000000000       0.000000000000000E+000        
  0.000000000000000E+000                                                        
   1.04600000000000       0.508728000000000       0.000000000000000E+000        
  0.000000000000000E+000                                                        
  0.275300000000000       0.460531000000000        1.00000000000000             
  0.000000000000000E+000                                                        
  6.856000000000000E-002  0.000000000000000E+000  0.000000000000000E+000        
   1.00000000000000                                                             
    2    2                                                                      
   1.18500000000000        1.00000000000000       0.000000000000000E+000        
  0.332000000000000       0.000000000000000E+000   1.00000000000000             
          1.00000000    1    2    1    1                                        
H #3   1.966486043723380   1.563854633313741   0.000000000000008                
    5    3                                                                      
   13.0100000000000       1.968500000000000E-002  0.000000000000000E+000        
  0.000000000000000E+000                                                        
   1.96200000000000       0.137977000000000       0.000000000000000E+000        
  0.000000000000000E+000                                                        
  0.444600000000000       0.478148000000000       0.000000000000000E+000        
  0.000000000000000E+000                                                        
  0.122000000000000       0.501240000000000        1.00000000000000             
  0.000000000000000E+000                                                        
  2.974000000000000E-002  0.000000000000000E+000  0.000000000000000E+000        
   1.00000000000000                                                             
    2    2                                                                      
  0.727000000000000        1.00000000000000       0.000000000000000E+000        
  0.141000000000000       0.000000000000000E+000   1.00000000000000             
          1.00000000    1    2    1    1                                        
H #4  -2.058401612789244   1.025767791227559  -1.672585177049645                
    5    3                                                                      
   13.0100000000000       1.968500000000000E-002  0.000000000000000E+000        
  0.000000000000000E+000                                                        
   1.96200000000000       0.137977000000000       0.000000000000000E+000        
  0.000000000000000E+000                                                        
  0.444600000000000       0.478148000000000       0.000000000000000E+000        
  0.000000000000000E+000                                                        
  0.122000000000000       0.501240000000000        1.00000000000000             
  0.000000000000000E+000                                                        
  2.974000000000000E-002  0.000000000000000E+000  0.000000000000000E+000        
   1.00000000000000                                                             
    2    2                                                                      
  0.727000000000000        1.00000000000000       0.000000000000000E+000        
  0.141000000000000       0.000000000000000E+000   1.00000000000000             
          1.00000000    1    2    1    1                                        
H #5  -2.217150373696453  -1.866881920432861  -0.000000000000010                
    5    3                                                                      
   13.0100000000000       1.968500000000000E-002  0.000000000000000E+000        
  0.000000000000000E+000                                                        
   1.96200000000000       0.137977000000000       0.000000000000000E+000        
  0.000000000000000E+000                                                        
  0.444600000000000       0.478148000000000       0.000000000000000E+000        
  0.000000000000000E+000                                                        
  0.122000000000000       0.501240000000000        1.00000000000000             
  0.000000000000000E+000                                                        
  2.974000000000000E-002  0.000000000000000E+000  0.000000000000000E+000        
   1.00000000000000                                                             
    2    2                                                                      
  0.727000000000000        1.00000000000000       0.000000000000000E+000        
  0.141000000000000       0.000000000000000E+000   1.00000000000000             
FINISH                                                                          
 
********************************************************************************
 ONE- AND TWO-ELECTRON INTEGRALS OVER SYMMETRY-ADAPTED AOS ARE CALCULATED.

  SPHERICAL HARMONICS ARE USED.
  
  INTEGRALS LESS THAN  0.10E-13 ARE NEGLECTED.

  NUCLEAR REPULSION ENERGY :   40.1637245914 A.U.
  @MOLECU-I, ONE ELECTRON INTEGRALS (CPU/WALL):        0.02/       0.03 SECONDS.
  @TWOEL-I,    1241283 INTEGRALS OF SYMMETRY TYPE  I I I I
  @TWOEL-I,    1091465 INTEGRALS OF SYMMETRY TYPE  I J I J
  @TWOEL-I,     575008 INTEGRALS OF SYMMETRY TYPE  I I J J
  @TWOEL-I, TOTAL NUMBER OF 2-E INTEGRALS    2907756.
  @MOLECU-I, TWO ELECTRON INTEGRALS (CPU/WALL):        1.87/       0.79 SECONDS.
 @CHECKOUT-I, Total execution time (CPU/WALL):        1.90/       0.83 seconds.

Running with 14 threads/proc

--executable xvmol finished with status     0 in        0.86 seconds (walltime).
 --invoking executable--
/nfs/workspaces/public/cfour_mpi/bin/xvmol2ja
 @GETMEM-I,  Allocated   38146 MB of main memory.
 @CHECKOUT-I, Total execution time (CPU/WALL):        0.09/       0.03 seconds.
--executable xvmol2ja finished with status     0 in        0.06 seconds (walltime).
 --invoking executable--
/nfs/workspaces/public/cfour_mpi/bin/xvscf
  There are   82 functions in the AO basis.

  There are 2 irreducible representations.

       Irrep        # of functions
         1                 55
         2                 27


  Parameters for SCF calculation: 
        SCF reference function:  RHF  
  Maximum number of iterations:  150
     Full symmetry point group: C s 
     Computational point group: C s 
        Initial density matrix: MOREAD                 
     SCF convergence tolerance: 10**(-10)
  DIIS convergence acceleration:  ON
          Latest start for DIIS:   8
                     DIIS order:   6

  Memory information:     308252 words required.
  Fock matrices are constructed from AO integral file.
 @GETMEM-I,  Allocated       2 MB of main memory.
  Initialization and symmetry analysis required      0.001 seconds.

  @INITGES-I, Occupancies from core Hamiltonian:

          Alpha population by irrep:   7    2
           Beta population by irrep:   7    2


 total no. of electrons in initial guess :  0.000000000000000E+000
  --------------------------------------------------------------------
  Iteration         Total Energy            Largest Density Difference
  --------------------------------------------------------------------
       0            40.163724591353905              0.0000000000D+00
   current occupation vector 
     7  2
     7  2
       1           -99.528992195954373              0.1081101462D+02
   current occupation vector 
     7  2
     7  2
       2           -91.103719608289339              0.6741475338D+02
   current occupation vector 
     7  2
     7  2
       3           -99.855986821339457              0.6745913695D+02
   current occupation vector 
     8  1
     8  1
       4           -94.026259766586179              0.8956007764D+01
   current occupation vector 
     7  2
     7  2
       5           -94.616829671455349              0.1039970240D+02
   current occupation vector 
     8  1
     8  1
       6           -92.358148471191527              0.1040333603D+02
   current occupation vector 
     7  2
     7  2
       7           -90.723166543861026              0.8819551803D+01
   current occupation vector 
     7  2
     7  2
       8           -90.599486703605834              0.9524073120D+01
   current occupation vector 
     7  2
     7  2
       9          -108.888460673716878              0.8245677164D+01
   current occupation vector 
     8  1
     8  1
      10          -110.601509760658615              0.8628746559D+00
   current occupation vector 
     8  1
     8  1
      11          -114.847466048709492              0.1844472143D+01
   current occupation vector 
     7  2
     7  2
      12          -115.033621072365605              0.6329964684D+00
   current occupation vector 
     7  2
     7  2
      13          -115.055344550034931              0.1170792800D+00
   current occupation vector 
     7  2
     7  2
      14          -115.060625192320941              0.7118583417D-01
   current occupation vector 
     7  2
     7  2
      15          -115.060837735023824              0.1773379266D-01
   current occupation vector 
     7  2
     7  2
      16          -115.060849651816511              0.3900706759D-02
   current occupation vector 
     7  2
     7  2
      17          -115.060850574319232              0.1062483148D-02
   current occupation vector 
     7  2
     7  2
      18          -115.060850623097366              0.3106330808D-03
   current occupation vector 
     7  2
     7  2
      19          -115.060850624662976              0.4335792432D-04
   current occupation vector 
     7  2
     7  2
      20          -115.060850624761173              0.1144543175D-04
   current occupation vector 
     7  2
     7  2
      21          -115.060850624770580              0.2853535768D-05
   current occupation vector 
     7  2
     7  2
      22          -115.060850624772115              0.3752580735D-06
   current occupation vector 
     7  2
     7  2
      23          -115.060850624771319              0.1362456966D-06
   current occupation vector 
     7  2
     7  2
      24          -115.060850624771916              0.4985643454D-07
   current occupation vector 
     7  2
     7  2
      25          -115.060850624771263              0.1252926407D-07
   current occupation vector 
     7  2
     7  2
      26          -115.060850624771689              0.4779379115D-08
   current occupation vector 
     7  2
     7  2
      27          -115.060850624771149              0.1034130559D-08
   current occupation vector 
     7  2
     7  2
      28          -115.060850624770694              0.3565527873D-09
   current occupation vector 
     7  2
     7  2

  SCF has converged.

 Density matrix saved to file den.dat
 total electron number:   18.0000000000001     
     E(SCF)=      -115.060850624771120              0.8065112467D-10

  Eigenvector printing suppressed.

 @PUTMOS-I, Writing converged MOs to NEWMOS. 
 @PUTMOS-I, Symmetry   1 Full Blocks 13 Partial Blocksize   3
 @PUTMOS-I, Symmetry   2 Full Blocks  6 Partial Blocksize   3
 @PUTFOCK-I, Writing converged Fock matrix to NEWFOCK. 
 @PUTFOCK-I, Symmetry   1 Full Blocks 13 Partial Blocksize   3
 @PUTFOCK-I, Symmetry   2 Full Blocks  6 Partial Blocksize   3


 
  ORBITAL EIGENVALUES (ALPHA)  (1H = 27.2113834 eV)

       MO #        E(hartree)               E(eV)           FULLSYM    COMPSYM
       ----   --------------------   --------------------   -------   ---------
    1     1         -20.5683079662        -559.6921139584     A'        A'  (1)
    2     2         -11.2810340970        -306.9725439615     A'        A'  (1)
    3     3          -1.3583481319         -36.9625318077     A'        A'  (1)
    4     4          -0.9276122156         -25.2416116450     A'        A'  (1)
    5     5          -0.6890645397         -18.7503993776     A'        A'  (1)
    6    56          -0.6185015860         -16.8302837891     A''       A'' (2)
    7     6          -0.5960006111         -16.2180011341     A'        A'  (1)
    8     7          -0.5036498960         -13.7050104192     A'        A'  (1)
    9    57          -0.4501309042         -12.2486846157     A''       A'' (2)
  +++++++++++++++++++++++++++++++++++++++++++++++++++++++++++++++++++++++++++++
   10     8           0.0344057913           0.9362291784     A'        A'  (1)
   11     9           0.0513704788           1.3978617945     A'        A'  (1)
   12    58           0.0583939751           1.5889808450     A''       A'' (2)
   13    10           0.0656592489           1.7866789953     A'        A'  (1)
   14    11           0.1144300106           3.1137988899     A'        A'  (1)
   15    12           0.1414935813           3.8502360902     A'        A'  (1)
   16    59           0.1523919739           4.1467964287     A''       A'' (2)
   17    13           0.1714210938           4.6646051054     A'        A'  (1)
   18    14           0.2088313720           5.6825905284     A'        A'  (1)
   19    15           0.2231871386           6.0732307972     A'        A'  (1)
   20    60           0.2425703621           6.6006751250     A''       A'' (2)
   21    61           0.2811135744           7.6494892513     A''       A'' (2)
   22    16           0.2834830706           7.7139665228     A'        A'  (1)
   23    17           0.3207508982           8.7280756655     A'        A'  (1)
   24    18           0.3378034874           9.1921002086     A'        A'  (1)
   25    19           0.3845945709          10.4653503230     A'        A'  (1)
   26    62           0.3958309805          10.7711085719     A''       A'' (2)
   27    20           0.4191665485          11.4061016588     A'        A'  (1)
   28    21           0.4367396421          11.8842898460     A'        A'  (1)
   29    63           0.4385837332          11.9344701163     A''       A'' (2)
   30    22           0.4637867418          12.6202788482     A'        A'  (1)
   31    64           0.4712945378          12.8245763619     A''       A'' (2)
   32    65           0.5197104064          14.1420391268     A''       A'' (2)
   33    23           0.5510200195          14.9940170120     A'        A'  (1)
   34    24           0.5758721489          15.6702778325     A'        A'  (1)
   35    25           0.6118079768          16.6481414230     A'        A'  (1)
   36    66           0.6244074679          16.9909910078     A''       A'' (2)
   37    26           0.6334173451          17.2361622286     A'        A'  (1)
   38    27           0.6530480550          17.7703410041     A'        A'  (1)
   39    67           0.6648017125          18.0901742848     A''       A'' (2)
   40    28           0.6793948118          18.4872727027     A'        A'  (1)
   41    29           0.7318992421          19.9159908875     A'        A'  (1)
   42    68           0.7460266081          20.3004160596     A''       A'' (2)
   43    30           0.7465123300          20.3136332239     A'        A'  (1)
   44    31           0.9195445862          25.0220802873     A'        A'  (1)
   45    69           0.9615945952          26.1663192063     A''       A'' (2)
   46    32           1.0072342480          27.4082372950     A'        A'  (1)
   47    33           1.0494100589          28.5558994558     A'        A'  (1)
   48    34           1.1075182039          30.1371024690     A'        A'  (1)
   49    70           1.1933271450          32.4720824655     A''       A'' (2)
   50    71           1.2322693977          33.5317550317     A''       A'' (2)
   51    35           1.2355039140          33.6197706958     A'        A'  (1)
   52    36           1.3697504091          37.2728035441     A'        A'  (1)
   53    72           1.4206778842          38.6586105936     A''       A'' (2)
   54    37           1.5282896807          41.5868764488     A'        A'  (1)
   55    38           1.6319335541          44.4071696242     A'        A'  (1)
   56    73           1.7194456815          46.7884956740     A''       A'' (2)
   57    39           1.7446642005          47.4747264634     A'        A'  (1)
   58    40           1.7711230008          48.1947070235     A'        A'  (1)
   59    74           1.7811497460          48.4675486305     A''       A'' (2)
   60    75           1.8811846161          51.1896358359     A''       A'' (2)
   61    41           1.8991405901          51.6782427279     A'        A'  (1)
   62    42           2.0885575850          56.8325411974     A'        A'  (1)
   63    76           2.1030586095          57.2271341371     A''       A'' (2)
   64    43           2.1054171701          57.2913138317     A'        A'  (1)
   65    77           2.1720978201          59.1057865642     A''       A'' (2)
   66    44           2.2284294946          60.6386493567     A'        A'  (1)
   67    78           2.2744409079          61.8906835646     A''       A'' (2)
   68    45           2.3147643062          62.9879390174     A'        A'  (1)
   69    46           2.4068576703          65.4939268547     A'        A'  (1)
   70    47           2.5395378755          69.1043387898     A'        A'  (1)
   71    79           2.6387475131          71.8039702757     A''       A'' (2)
   72    48           2.6933437196          73.2896085825     A'        A'  (1)
   73    49           2.7881840704          75.8703457282     A'        A'  (1)
   74    50           2.8825598081          78.4384401126     A'        A'  (1)
   75    80           2.9066253081          79.0932956593     A''       A'' (2)
   76    51           3.0495528936          82.9825529853     A'        A'  (1)
   77    52           3.1497435611          85.7088796530     A'        A'  (1)
   78    81           3.7391096384         101.7463459446     A''       A'' (2)
   79    53           3.7591769874         102.2924062717     A'        A'  (1)
   80    82           3.7894317389         103.1156799146     A''       A'' (2)
   81    54           3.8870248967         105.7713247494     A'        A'  (1)
   82    55           4.2829167574         116.5440899559     A'        A'  (1)


  VSCF finished.

 @CHECKOUT-I, Total execution time (CPU/WALL):        6.70/       0.87 seconds.
--executable xvscf finished with status     0 in        0.88 seconds (walltime).
 --invoking executable--
/nfs/workspaces/public/cfour_mpi/bin/xvtran
 @GETMEM-I,  Allocated   38146 MB of main memory.
  Full RHF integral transformation
  The following   2 MOs will be dropped:
    1  2
  There are  80 active molecular orbitals.
  Transformation of IIII integrals :
  1 pass through the AO integral file was required.
     1241283 AO integrals were read.
     1096227 MO integrals were written to HF2.
  Transformation of IIJJ integrals :
  1 pass through the AO integral file was required.
      575008 AO integrals were read.
      540918 MO integrals were written to HF2.
  Transformation of IJIJ integrals :
  1 pass through the AO integral file was required.
     1091465 AO integrals were read.
     1024596 MO integrals were written to HF2.
  Summary of active molecular orbitals: 
------------------------------------------------------------------------
 
  Index      Eigenvalue    Symmetry    Index      Eigenvalue    Symmetry
------------------------------------------------------------------------
     1        -1.3583481        1        41         1.8991406        1
     2        -0.9276122        1        42         2.0885576        1
     3        -0.6890645        1        43         2.1054172        1
     4        -0.5960006        1        44         2.2284295        1
     5        -0.5036499        1        45         2.3147643        1
     6        -0.6185016        2        46         2.4068577        1
     7        -0.4501309        2        47         2.5395379        1
     8         0.0344058        1        48         2.6933437        1
     9         0.0513705        1        49         2.7881841        1
    10         0.0656592        1        50         2.8825598        1
    11         0.1144300        1        51         3.0495529        1
    12         0.1414936        1        52         3.1497436        1
    13         0.1714211        1        53         3.7591770        1
    14         0.2088314        1        54         3.8870249        1
    15         0.2231871        1        55         4.2829168        1
    16         0.2834831        1        56         0.0583940        2
    17         0.3207509        1        57         0.1523920        2
    18         0.3378035        1        58         0.2425704        2
    19         0.3845946        1        59         0.2811136        2
    20         0.4191665        1        60         0.3958310        2
    21         0.4367396        1        61         0.4385837        2
    22         0.4637867        1        62         0.4712945        2
    23         0.5510200        1        63         0.5197104        2
    24         0.5758721        1        64         0.6244075        2
    25         0.6118080        1        65         0.6648017        2
    26         0.6334173        1        66         0.7460266        2
    27         0.6530481        1        67         0.9615946        2
    28         0.6793948        1        68         1.1933271        2
    29         0.7318992        1        69         1.2322694        2
    30         0.7465123        1        70         1.4206779        2
    31         0.9195446        1        71         1.7194457        2
    32         1.0072342        1        72         1.7811497        2
    33         1.0494101        1        73         1.8811846        2
    34         1.1075182        1        74         2.1030586        2
    35         1.2355039        1        75         2.1720978        2
    36         1.3697504        1        76         2.2744409        2
    37         1.5282897        1        77         2.6387475        2
    38         1.6319336        1        78         2.9066253        2
    39         1.7446642        1        79         3.7391096        2
    40         1.7711230        1        80         3.7894317        2
------------------------------------------------------------------------
  -1.35834813189535      -0.927612215590445      -0.689064539716424     
 -0.596000611058323      -0.503649895990626      -0.618501585960225     
 -0.450130904247553       3.440579130488053E-002  5.137047881759049E-002
  6.565924888864463E-002  0.114430010564732       0.141493581330159     
  0.171421093767578       0.208831371961758       0.223187138556104     
  0.283483070647149       0.320750898152450       0.337803487368205     
  0.384594570924979       0.419166548466084       0.436739642058686     
  0.463786741845268       0.551020019509908       0.575872148879634     
  0.611807976769210       0.633417345057137       0.653048055031423     
  0.679394811757811       0.731899242121640       0.746512329979380     
  0.919544586155221        1.00723424796561        1.04941005887340     
   1.10751820390655        1.23550391399002        1.36975040909087     
   1.52828968073792        1.63193355410914        1.74466420047426     
   1.77112300080452        1.89914059010661        2.08855758496454     
   2.10541717007000        2.22842949457255        2.31476430622676     
   2.40685767026240        2.53953787552608        2.69334371961822     
   2.78818407035440        2.88255980813497        3.04955289356216     
   3.14974356110864        3.75917698736699        3.88702489669902     
   4.28291675739894       5.839397510986359E-002  0.152391973893511     
  0.242570362114834       0.281113574375112       0.395830980498524     
  0.438583733169844       0.471294537780233       0.519710406447944     
  0.624407467935610       0.664801712536780       0.746026608100753     
  0.961594595235891        1.19332714504675        1.23226939765615     
   1.42067788415437        1.71944568147242        1.78114974597362     
   1.88118461613758        2.10305860954702        2.17209782006785     
   2.27444090786510        2.63874751313546        2.90662530811738     
   3.73910963837945        3.78943173887475     
 @CHECKOUT-I, Total execution time (CPU/WALL):        4.73/       1.08 seconds.
--executable xvtran finished with status     0 in        1.10 seconds (walltime).
 --invoking executable--
/nfs/workspaces/public/cfour_mpi/bin/xintprc
 @GETMEM-I,  Allocated   38146 MB of main memory.
  @GMOIAA-I, Processing MO integrals for spin case AA.
  @GMOIAA-I, Generation of integral list completed.
                      TYPE                NUMBER
                      ----               --------
                      PPPP               1847851
                      PPPH                700490
                      PPHH                 66726
                      PHPH                 39018
                      PHHH                  7430
                      HHHH                   226

                     TOTAL               2661741

  @FORMT2-I, Second-order MP correlation energies:
            ------------------------------------------------
            E(SCF)                  =   -115.060850624771 a.u.
            E2(AA)                  =     -0.042975542296 a.u.
            E2(AB)                  =     -0.274202838270 a.u.
            E2(TOT)                 =     -0.360153922861 a.u.
            Total MP2 energy        =   -115.421004547632 a.u.
            ------------------------------------------------
   Largest T2 amplitudes for spin case AB:
       _       _                 _       _                 _       _
   i   j   a   b             i   j   a   b             i   j   a   b
-----------------------------------------------------------------------------
[  7   7  72  72]-0.01430 [  6   6  59  59]-0.01338 [  4   4  33  33]-0.01202
[  6   6  67  67]-0.01200 [  3   3  18  18]-0.01069 [  4   4  22  22]-0.01043
[  7   7  69  69]-0.01027 [  5   5  16  16]-0.01005 [  7   7  58  58]-0.00987
[  4   4  25  25]-0.00983 [  5   5  22  22]-0.00969 [  3   3  32  32]-0.00915
[  4   4  16  16]-0.00909 [  4   4  18  18]-0.00887 [  7   7  70  70]-0.00874
-----------------------------------------------------------------------------
   Norm of T2AB vector (   132941 symmetry allowed elements):  0.2838209135.
-----------------------------------------------------------------------------
 @CHECKOUT-I, Total execution time (CPU/WALL):        1.88/       0.49 seconds.
--executable xintprc finished with status     0 in        0.52 seconds (walltime).
  calling xncc 
 --invoking executable--
/nfs/workspaces/public/cfour_mpi/bin/xncc
 @GETMEM-I,  Allocated       7 MB of main memory.

Running with 14 threads/proc

Using DIIS to accelerate the convergence of T1 and T2
Using DIIS to accelerate the convergence of T3
Using immediate high-order contributions
Damping factor for T3: 0.000000
Damping factor for T4: 0.000000

Transposes are coarse-threaded

Memory limit:                 37.253 GiB
Minimum memory requirement:  439.621 MiB
Compromise memory amount:      4.802 GiB
Optimal memory requirement:   55.772 GiB

List              Location   Size        Cached Hunks Est. Disk I/O
----------------- ---------- ----------- ------ ----- -------------

           T_DIIS       70:0    5.082 MiB    Yes     -    91.482 MiB
           Z_DIIS       70:1    5.082 MiB    Yes     -   152.471 MiB
          <AI|bj>         18    1.014 MiB    Yes     -    57.295 MiB
          <Ab|Cd>        233  109.398 MiB    Yes     -    29.059 GiB
          <Ab|Ci>         30   10.527 MiB    Yes     -     3.053 GiB
          <Ab|Ij>         16    1.014 MiB    Yes     -   434.103 MiB
          <Ai|Bj>         25    1.014 MiB    Yes     -    47.670 MiB
          <Aj|bI>         21    1.014 MiB     No     -         0   B
          <Ij|Ka>         10  100.234 KiB    Yes     -    31.421 MiB
          <Ij|Kl>         13    9.695 KiB    Yes     -   164.820 KiB
            F(EA)       92:0   22.883 KiB    Yes     -     2.346 MiB
            F(EM)       93:0    2.266 KiB    Yes     -   271.875 KiB
            F(MI)       91:0      232   B    Yes     -    33.984 KiB
            Q(AI)      190:2    2.266 KiB    Yes     -   305.859 KiB
         Q(Ab,Ij)         50    1.014 MiB    Yes     -   502.058 MiB
            T(AI)       90:0    2.266 KiB    Yes     -   919.844 KiB
         T(Ab,Ij)         46    1.014 MiB    Yes     -   540.600 MiB
         W(Mn,Ij)         53    9.695 KiB    Yes     -     1.278 MiB
        W~(Ab,Ej)        130   10.527 MiB    Yes     -     2.467 GiB
        W~(EM,bj)         56    1.014 MiB    Yes     -   289.064 MiB
        W~(Em,Bj)         58    1.014 MiB    Yes     -   349.919 MiB
        W~(Ij,Mb)        110  100.234 KiB    Yes     -    16.151 MiB
       W~~(Ab,Ej)        169   10.527 MiB    Yes     -     2.159 GiB
       W~~(EM,bj)         76    1.014 MiB    Yes     -   121.711 MiB
       W~~(Em,Bj)         78    1.014 MiB    Yes     -   121.711 MiB
       W~~(Ij,Mb)        165  100.234 KiB    Yes     -    20.556 MiB
            Z(AI)       90:2    2.266 KiB    Yes     -   339.844 KiB
         Z(Ab,Ij)         63    1.014 MiB    Yes     -   152.139 MiB
       T(abc,ijk)     T3FILE  114.870 MiB    Yes     1     8.526 GiB
     T(abcd,ijkl)          -   17.054 GiB     No     2         0   B
             T3_1       T3_1  114.870 MiB    Yes     1     3.365 GiB
             T3_2       T3_2  114.870 MiB    Yes     1     1.683 GiB
             T3_3       T3_3  114.870 MiB    Yes     1     1.683 GiB
             T3_4       T3_4  114.870 MiB    Yes     1     1.683 GiB
             T3_5       T3_5  114.870 MiB    Yes     1     1.683 GiB
       W(abc,ije)    WABCIJE    2.971 GiB    Yes     1     5.941 GiB
       W(abm,ijk)    WABMIJK   28.036 MiB    Yes     1    56.072 MiB
       Z(abc,ijk)     Z3FILE  114.870 MiB    Yes     1     8.413 GiB
     Z(abcd,ijkl)          -   17.054 GiB     No     2         0   B
             Z3_1       Z3_1  114.870 MiB    Yes     1     3.365 GiB
             Z3_2       Z3_2  114.870 MiB    Yes     1     3.365 GiB
             Z3_3       Z3_3  114.870 MiB    Yes     1     3.365 GiB
             Z3_4       Z3_4  114.870 MiB    Yes     1     3.365 GiB
             Z3_5       Z3_5  114.870 MiB    Yes     1     3.365 GiB

Simulation and memory analysis took 0.890 seconds

MP2 correlation energy:  -0.360153922860825

Non-iterative calculation of MP2 took 0.038 cpu seconds and 0.003 walltime seconds at 1.712 Gflops/sec

Total MP2 energy: -115.421004547631952

Beginning iterative solution of CCSDT equations:

It.  Correlation Energy T1 Residual T2 Residual T3 Residual CPU Time (s) Walltime (s)
-------------------------------------------------------------------------------------
  1  -0.382078632582885 1.09562e-02 1.76062e-03 3.34922e-04       13.512        0.983
  2  -0.390908003953685 1.80491e-03 1.16389e-03 6.94944e-05       39.767        2.854
  3  -0.393541167608975 1.68460e-03 2.33147e-04 8.69158e-05       39.577        2.849
  4  -0.394395098721866 3.00655e-04 1.22826e-04 2.10485e-05       39.606        2.842
  5  -0.394489208837839 1.05906e-04 5.34320e-05 1.35263e-05       45.876        3.320

   A    I                     A    I                     A    I                  
-------------------------- -------------------------- -------------------------- 
  20    9  0.0159156265464   29    6 -0.0064285876887   26    9 -0.0052317171554 
  20    6 -0.0086027139897   36    6  0.0064029136933   42    9  0.0050360255298 
  29    9  0.0069688219664   70    5  0.0059738139169   42    6 -0.0049354299576 
  30    7  0.0068394543667   30    8  0.0057806211976   31    6 -0.0049259225297 
  18    8  0.0068132016534   16    6 -0.0055691577212   22    7 -0.0049044256316 

   A    B    I    J                     A    B    I    J                  
------------------------------------ ------------------------------------ 
  21   21    6    6 -0.0165616143581   30   30    8    8 -0.0119355359843 
  59   59    9    9 -0.0145654475267   20   20    9    9 -0.0119198514848 
  47   47    7    7 -0.0140300497667   22   22    7    7 -0.0116527011946 
  45   45    6    6 -0.0139157094194   21   21    9    9 -0.0116094091056 
  24   24    5    5 -0.0127059705824   24   24    7    7 -0.0111006382786 
  30   30    7    7 -0.0127057903133   21   21    9    6 -0.0110766788607 
  22   22    8    8 -0.0126628247044   21   21    6    9 -0.0110766788607 
  35   35    7    7 -0.0119831612876 

It.  Correlation Energy T1 Residual T2 Residual T3 Residual CPU Time (s) Walltime (s)
-------------------------------------------------------------------------------------
  6  -0.394495483567898 4.66310e-05 8.60262e-06 2.22649e-06       41.183        2.955
  7  -0.394496629775150 1.53673e-05 3.17145e-06 7.49649e-07       42.173        3.035
  8  -0.394496107033039 5.99492e-06 1.08969e-06 6.36263e-07       41.684        2.992
  9  -0.394496006572661 2.72573e-06 4.80077e-07 4.22059e-07       42.700        3.071
 10  -0.394496217378768 1.32131e-06 2.46217e-07 2.61895e-07       41.573        2.986

   A    I                     A    I                     A    I                  
-------------------------- -------------------------- -------------------------- 
  20    9  0.0160047442633   29    6 -0.0064357555027   26    9 -0.0052411488990 
  20    6 -0.0086367797041   36    6  0.0064037658067   42    9  0.0050385856987 
  29    9  0.0070020697475   70    5  0.0059728768324   42    6 -0.0049333860282 
  18    8  0.0068580512472   30    8  0.0058057650390   22    7 -0.0049270692833 
  30    7  0.0068374049835   16    6 -0.0055933434375   31    6 -0.0049242644316 

   A    B    I    J                     A    B    I    J                  
------------------------------------ ------------------------------------ 
  21   21    6    6 -0.0165593964684   30   30    8    8 -0.0119391139066 
  59   59    9    9 -0.0145629753758   20   20    9    9 -0.0119362440032 
  47   47    7    7 -0.0140280379534   22   22    7    7 -0.0116538085793 
  45   45    6    6 -0.0139148902481   21   21    9    9 -0.0116130906886 
  24   24    5    5 -0.0127042656636   24   24    7    7 -0.0111047148957 
  30   30    7    7 -0.0127026507503   21   21    9    6 -0.0110842433984 
  22   22    8    8 -0.0126621641173   21   21    6    9 -0.0110842433984 
  35   35    7    7 -0.0119831932283 

It.  Correlation Energy T1 Residual T2 Residual T3 Residual CPU Time (s) Walltime (s)
-------------------------------------------------------------------------------------
 11  -0.394496375965436 4.99235e-07 1.30488e-07 1.72304e-07       40.651        2.913
 12  -0.394496426555360 1.93270e-07 6.46291e-08 8.35286e-08       42.824        3.076
 13  -0.394496449579474 7.94927e-08 2.19980e-08 3.12646e-08       41.904        3.005
 14  -0.394496457618140 4.12222e-08 8.55408e-09 1.38107e-08       42.162        3.029
 15  -0.394496458709252 2.33931e-08 3.51974e-09 8.00564e-09       42.008        3.012

   A    I                     A    I                     A    I                  
-------------------------- -------------------------- -------------------------- 
  20    9  0.0160043918568   29    6 -0.0064357673329   26    9 -0.0052408302968 
  20    6 -0.0086366530549   36    6  0.0064036800546   42    9  0.0050385441440 
  29    9  0.0070020119261   70    5  0.0059728971839   42    6 -0.0049334215505 
  18    8  0.0068590029440   30    8  0.0058060784098   22    7 -0.0049271172187 
  30    7  0.0068374910145   16    6 -0.0055934259410   31    6 -0.0049243685231 

   A    B    I    J                     A    B    I    J                  
------------------------------------ ------------------------------------ 
  21   21    6    6 -0.0165594612808   30   30    8    8 -0.0119391386022 
  59   59    9    9 -0.0145629928660   20   20    9    9 -0.0119362098878 
  47   47    7    7 -0.0140280509772   22   22    7    7 -0.0116538427701 
  45   45    6    6 -0.0139148958620   21   21    9    9 -0.0116129703280 
  24   24    5    5 -0.0127042532341   24   24    7    7 -0.0111047393787 
  30   30    7    7 -0.0127027543550   21   21    9    6 -0.0110842246823 
  22   22    8    8 -0.0126621968606   21   21    6    9 -0.0110842246823 
  35   35    7    7 -0.0119832067821 

It.  Correlation Energy T1 Residual T2 Residual T3 Residual CPU Time (s) Walltime (s)
-------------------------------------------------------------------------------------
 16  -0.394496459709690 1.24976e-08 1.80999e-09 2.68883e-09       43.393        3.110
 17  -0.394496459947076 6.08673e-09 1.30074e-09 1.06043e-09       44.513        3.198
 18  -0.394496459902042 3.26753e-09 5.54019e-10 5.65676e-10       43.997        3.156
 19  -0.394496459851525 1.19915e-09 1.88571e-10 2.59152e-10       43.946        3.173
 20  -0.394496459826469 5.54524e-10 1.23245e-10 2.09937e-10       44.336        3.184

   A    I                     A    I                     A    I                  
-------------------------- -------------------------- -------------------------- 
  20    9  0.0160043777362   29    6 -0.0064357653223   26    9 -0.0052408364076 
  20    6 -0.0086366484284   36    6  0.0064036800174   42    9  0.0050385410607 
  29    9  0.0070020048036   70    5  0.0059728972720   42    6 -0.0049334205267 
  18    8  0.0068590040568   30    8  0.0058060746903   22    7 -0.0049271185569 
  30    7  0.0068374919755   16    6 -0.0055934188843   31    6 -0.0049243680561 

   A    B    I    J                     A    B    I    J                  
------------------------------------ ------------------------------------ 
  21   21    6    6 -0.0165594624604   30   30    8    8 -0.0119391382494 
  59   59    9    9 -0.0145629934508   20   20    9    9 -0.0119362077313 
  47   47    7    7 -0.0140280507942   22   22    7    7 -0.0116538430884 
  45   45    6    6 -0.0139148960782   21   21    9    9 -0.0116129715421 
  24   24    5    5 -0.0127042542301   24   24    7    7 -0.0111047401099 
  30   30    7    7 -0.0127027551172   21   21    9    6 -0.0110842260583 
  22   22    8    8 -0.0126622006210   21   21    6    9 -0.0110842260583 
  35   35    7    7 -0.0119832071518 

It.  Correlation Energy T1 Residual T2 Residual T3 Residual CPU Time (s) Walltime (s)
-------------------------------------------------------------------------------------
 21  -0.394496459800438 3.06256e-10 7.08988e-11 1.15707e-10       42.984        3.083
 22  -0.394496459789382 1.49075e-10 2.86763e-11 5.24132e-11       41.074        2.944
 23  -0.394496459784456 9.33612e-11 2.04256e-11 2.10950e-11       40.588        2.909

CCSDT iterations converged in 23 cycles and 67.685 seconds (2.943 s/it.) at 92.050 Gflops/sec

Total CCSDT energy: -115.455347084555584

CCSDT[Q] correlation energy:  -0.000286494446608
CCSDT(Q) correlation energy:  -0.000715520157951

Non-iterative calculation of CCSDT(Q) took 3158.076 cpu seconds and 285.242 walltime seconds at 10.468 Gflops/sec

Total CCSDT(Q) energy: -115.456062604713537

 @CHECKOUT-I, Total execution time (CPU/WALL):     4111.43/     354.79 seconds.
--executable xncc finished with status     0 in      355.36 seconds (walltime).
  The final electronic energy is      -115.456062604713537 a.u. 
  This computation required                          359.18 seconds (walltime).
